VARIABLES= "x" , "y" , "phir","phii","pr","pi" 
ZONE F=FEPOINT,ET=TRIANGLE,N=4436,E=8613
0 -1 -1.97042e-11 -5.11259 -34.7492 3.10827e-11 
0.0201982 -0.999796 -34.7492 3.10827e-11 -34.6747 4.11635e-11 
0 -0.979966 -2.56755 -7.19247e-12 -32.4181 4.67466e-11 
0.220709 -0.97534 -1.97335e-11 -5.10965 -28.4424 -8.12825e-11 
0.20093 -0.979606 -1.68001e-11 -4.94007 -29.4922 1.16422e-11 
0.181068 -0.983471 -1.91889e-11 -5.09358 -30.4581 6.41531e-11 
0.0269485 -0.986111 -1.96658e-11 -5.10453 -33.0679 5.57154e-11 
0.0404227 -0.999183 -34.6747 4.11635e-11 -34.5258 7.45626e-11 
0.0134742 -0.973039 -2.56213 -7.28528e-12 -31.6298 4.91465e-11 
0 -0.959967 -1.74964e-11 -4.98474 -30.2276 4.1311e-11 
0 -0.939968 -1.55618e-11 -4.87667 -28.1379 2.96634e-11 
0.240397 -0.970675 -1.68274e-11 -4.93723 -27.31 -1.71967e-10 
0.259987 -0.965612 -1.13989e-11 -4.60827 -26.1025 -2.43118e-10 
0.279471 -0.960154 -1.39697e-11 -4.77189 -24.8261 -2.8647e-10 
0.337204 -0.941432 -32.4181 4.67466e-11 -20.6339 -3.19937e-10 
0.29884 -0.954303 1.43194 3.88911e-12 -23.4854 -2.3157e-10 
0.318087 -0.948061 -1.3068e-11 -4.71427 -22.0858 -3.04742e-10 
0.224371 -0.959294 2.09428e-11 -4.10337 -26.662 -1.13481e-10 
0.204944 -0.962814 1.89873e-11 -4.18592 -27.6008 -4.72458e-11 
0.208344 -0.945248 -28.4424 -8.12825e-11 -25.7321 -8.10294e-11 
0.185473 -0.965788 -2.09325 -8.28548e-12 -28.4412 3.52074e-12 
0.100964 -0.99489 1.66211e-11 -4.26401 -33.3892 1.02325e-10 
0.121072 -0.992644 1.9015e-11 -4.05352 -32.802 1.08622e-10 
0.141132 -0.989991 1.71398e-11 -4.12421 -32.1154 8.52705e-11 
0.161133 -0.986933 1.71139e-11 -3.99384 -31.3351 8.21085e-11 
0.165979 -0.971512 1.42264e-11 -4.34057 -29.5299 4.135e-11 
0 -0.919968 -29.4922 1.16422e-11 -26.1667 1.46407e-11 
0.0303153 -0.969064 -2.17203 -8.12339e-12 -31.1448 5.06226e-11 
0.0808138 -0.996729 1.16451e-11 -4.41245 -33.8622 1.07436e-10 
0.0865404 -0.98133 1.26306e-11 -4.26319 -32.0378 8.16875e-11 
0.045473 -0.983612 1.47999e-11 -4.19986 -32.6821 6.79545e-11 
0.0606306 -0.99816 6.0365e-12 -4.54803 -34.2367 8.91482e-11 
0.0151577 -0.954516 7.61569e-12 -4.41456 -29.6351 3.90461e-11 
0.013469 -0.932762 1.02827e-11 -4.33262 -27.4038 2.41442e-11 
0.356183 -0.934416 8.92753e-12 -4.48269 -19.1368 -3.10816e-10 
0.375016 -0.927018 -30.4581 6.41531e-11 -17.6007 -3.32219e-10 
0.393695 -0.919241 -2.24442 -7.97062e-12 -16.0329 -3.27657e-10 
0.466725 -0.884402 -1.35707e-11 -4.76109 -9.57682 -2.88773e-11 
0.448736 -0.893664 -1.32065e-11 -4.95043 -11.2042 -1.5349e-10 
0.412213 -0.911087 -1.5268e-11 -4.86677 -14.4389 -3.50317e-10 
0.430563 -0.902561 -33.0679 5.57154e-11 -12.827 -2.81482e-10 
0.244694 -0.953516 0.905423 2.34412e-12 -25.426 -1.77715e-10 
0.263945 -0.947922 -1.61366e-11 -4.94427 -24.2104 -2.22797e-10 
0.282238 -0.942396 -1.68809e-11 -4.97323 -23.0091 -2.36591e-10 
0.339993 -0.922851 -1.86777e-11 -5.08047 -18.8821 -2.79803e-10 
0.320344 -0.930359 -34.5258 7.45626e-11 -20.3832 -2.74168e-10 
0.302183 -0.936657 -2.54948 -7.25908e-12 -21.6976 -2.484e-10 
0.227489 -0.942407 -1.80442e-11 -5.06158 -24.8897 -1.28978e-10 
0.214107 -0.929323 -1.29368e-11 -4.72394 -24.0405 -1.03072e-10 
0 -0.899969 -1.44618e-11 -4.83955 -24.2986 1.40243e-12 
0.189179 -0.950287 -1.19731e-11 -4.6562 -26.7544 -3.45537e-11 
0.192085 -0.934745 -31.6298 4.91465e-11 -25.1506 -5.95985e-11 
0.170017 -0.95197 0.158298 2.48385e-13 -27.3943 -3.2081e-12 
0.0908044 -0.964475 -1.05238e-11 -4.5521 -30.1398 5.79128e-11 
0.105938 -0.978559 -9.724e-12 -4.50697 -31.462 7.838e-11 
0.127018 -0.976989 -8.36664e-12 -4.40548 -30.9392 7.22071e-11 
0.146484 -0.973573 -9.1489e-12 -4.44881 -30.1867 5.63478e-11 
0.15089 -0.959554 -30.2276 4.1311e-11 -28.6007 2.80895e-11 
0.0151341 -0.911553 -0.314855 -9.38652e-13 -25.3526 8.87912e-12 
0.0404069 -0.958349 -6.93046e-12 -4.29346 -29.9447 4.55369e-11 
0.0673092 -0.969916 -1.14238e-11 -4.62081 -30.978 6.30642e-11 
0.0756703 -0.957891 -3.26317e-12 -3.99482 -29.6105 4.94786e-11 
0.0302681 -0.923138 -5.05329e-12 -4.14215 -26.4104 1.6918e-11 
0.0336546 -0.944942 -28.1379 2.96634e-11 -28.575 3.41753e-11 
0.484524 -0.874778 0.0328139 -7.94694e-14 -7.95337 -1.4079e-11 
0.502124 -0.864796 -4.35096e-12 -4.08816 -6.33948 5.77534e-11 
0.519518 -0.854459 -6.46039e-12 -4.25124 -4.74255 1.08708e-10 
0.35797 -0.915789 2.26306e-11 -4.01942 -17.4804 -2.84536e-10 
0.376578 -0.907969 -27.31 -1.71967e-10 -15.9807 -2.83848e-10 
0.395038 -0.900624 -2.00845 -8.22387e-12 -14.5178 -2.78717e-10 
0.467219 -0.86425 2.07743e-11 -3.97198 -8.2832 -3.29523e-11 
0.449439 -0.873868 2.2236e-11 -3.87912 -9.84549 -9.56466e-11 
0.431477 -0.883138 2.41349e-11 -3.93126 -11.4095 -1.80047e-10 
0.414003 -0.891692 2.54328e-11 -3.84182 -12.9092 -2.46358e-10 
0.194991 -0.919202 -26.1025 -2.43118e-10 -23.6096 -7.69651e-11 
0.246592 -0.936603 -1.91799 -8.23375e-12 -23.7277 -1.71421e-10 
0.340923 -0.90456 2.49389e-11 -3.70085 -17.328 -2.48044e-10 
0.265636 -0.930489 2.66298e-11 -3.74844 -22.5118 -2.00874e-10 
0.286279 -0.925253 2.37679e-11 -3.79211 -21.2884 -2.19694e-10 
0.322261 -0.912089 3.11525e-11 -2.9271 -18.7322 -2.4462e-10 
0.303484 -0.919286 3.09568e-11 -3.037 -20.1012 -2.34007e-10 
0.232893 -0.923458 -20.6339 -3.19937e-10 -22.9407 -1.38946e-10 
0.213713 -0.913053 -1.50802 -7.25292e-12 -22.5545 -1.06872e-10 
0 -0.87997 2.92961e-11 -3.01903 -22.527 -1.10516e-11 
0.0151341 -0.894054 3.06247e-11 -3.14415 -23.7474 -1.99041e-12 
0.176291 -0.919821 2.94964e-11 -2.90629 -24.1206 -5.19078e-11 
0.173414 -0.937761 2.57738e-11 -3.60882 -25.8955 -2.95239e-11 
0.154561 -0.938152 2.67133e-11 -3.51852 -26.3459 -8.95461e-12 
0.0987921 -0.950985 2.81879e-11 -3.55573 -28.6093 3.93943e-11 
0.112905 -0.963987 2.75369e-11 -3.65392 -29.7594 5.37685e-11 
0.128906 -0.96154 -24.8261 -2.8647e-10 -29.2342 4.34284e-11 
0.135801 -0.947596 -1.82228 -8.15903e-12 -27.663 1.85754e-11 
0.0313626 -0.904419 2.73481e-11 -3.42191 -24.6416 3.56071e-12 
0.0605362 -0.946306 2.969e-11 -3.354 -28.5405 3.69305e-11 
0.0784064 -0.941093 2.87015e-11 -3.22242 -27.8416 2.97309e-11 
0.0454022 -0.922223 2.80327e-11 -3.32335 -26.2413 1.5552e-11 
0.0966798 -0.936148 2.90774e-11 -3.45656 -27.1373 2.21387e-11 
0.5367 -0.843773 -23.4854 -2.3157e-10 -3.16982 1.41747e-10 
0.484809 -0.854975 -1.72175 -7.88269e-12 -6.76875 1.44809e-11 
0.502201 -0.844644 2.88629e-11 -3.12368 -5.22623 6.30889e-11 
0.519387 -0.833974 3.01121e-11 -3.25061 -3.70657 9.87899e-11 
0.359461 -0.896696 -22.0858 -3.04742e-10 -15.8947 -2.45713e-10 
0.377862 -0.890162 -1.61684 -7.5594e-12 -14.5594 -2.39668e-10 
0.397443 -0.880824 1.89151e-11 -3.79214 -12.9574 -2.15775e-10 
0.467494 -0.845153 2.06184e-11 -3.83362 -7.15402 -1.52296e-11 
0.449915 -0.85515 1.89533e-11 -3.92391 -8.65686 -6.40097e-11 
0.432153 -0.863334 -26.662 -1.13481e-10 -10.0721 -1.20018e-10 
0.414218 -0.872612 0.526108 1.94192e-12 -11.5752 -1.76756e-10 
0.342344 -0.885424 1.73632e-11 -3.8556 -15.7766 -2.14741e-10 
0.18352 -0.90513 1.73106e-11 -3.72607 -22.6217 -6.95346e-11 
0.20184 -0.898993 -1.16476e-11 -4.91388 -21.6304 -9.28608e-11 
0.249034 -0.918582 -33.3892 1.02325e-10 -21.9934 -1.63513e-10 
0.323877 -0.893331 -2.46419 -7.37777e-12 -17.144 -2.15661e-10 
0.270374 -0.913848 -8.78098e-12 -4.77067 -20.8582 -1.89557e-10 
0.286624 -0.908213 -1.0614e-11 -4.81426 -19.7932 -2.02178e-10 
0.307613 -0.89972 -9.55969e-12 -4.87179 -18.2984 -2.12462e-10 
0.232431 -0.906675 -8.24252e-12 -4.67367 -21.457 -1.33208e-10 
0.220198 -0.892638 2.52842e-12 -4.52689 -20.6014 -1.14563e-10 
0.0141132 -0.872973 4.18332e-13 -4.67013 -21.9177 -1.4424e-11 
0 -0.859971 4.93006e-12 -4.47766 -20.858 -2.00071e-11 
0.0282263 -0.885975 3.21343e-12 -4.61163 -22.9987 -8.47233e-12 
0.160265 -0.913774 -31.3351 8.21085e-11 -23.9085 -4.04885e-11 
0.139105 -0.924334 -2.31011 -7.68441e-12 -25.3137 -1.2462e-11 
0.120712 -0.935637 -6.93889e-12 -4.72874 -26.719 1.09583e-11 
0.0483399 -0.898059 -7.40785e-12 -4.82771 -23.9733 -2.4114e-12 
0.0564526 -0.911979 -32.802 1.08622e-10 -25.1982 5.99698e-12 
0.0805665 -0.923452 -2.42024 -7.48168e-12 -26.0793 1.20668e-11 
0.0627251 -0.928868 -4.88964e-12 -4.68912 -26.7705 2.03624e-11 
0.105623 -0.923679 -5.05107e-12 -4.77821 -25.789 4.69491e-12 
0.0905342 -0.911721 -2.55906e-12 -4.63979 -24.8538 -7.93143e-13 
0.553662 -0.832742 -1.25011e-13 -4.58318 -1.62761 1.24663e-10 
0.535802 -0.823298 -2.49978e-12 -4.72681 -2.26243 1.1725e-10 
0.484884 -0.834828 -32.1154 8.52705e-11 -5.66569 2.81839e-11 
0.502074 -0.824174 -2.3688 -7.59848e-12 -4.19868 6.42815e-11 
0.517942 -0.813854 1.533e-11 -4.06221 -2.84862 9.01437e-11 
0.360687 -0.879699 -27.6008 -4.72458e-11 -14.565 -2.10661e-10 
0.380882 -0.869955 0.575522 1.9923e-12 -12.9722 -1.90588e-10 
0.467566 -0.825012 1.38394e-11 -3.99992 -6.06204 1.07092e-12 
0.396959 -0.862085 1.33566e-11 -4.1249 -11.702 -1.65187e-10 
0.45018 -0.835332 1.56772e-11 -3.9231 -7.49731 -3.89861e-11 
0.43261 -0.843193 1.41802e-11 -3.86295 -8.81786 -8.0711e-11 
0.414867 -0.8528 1.57294e-11 -3.78723 -10.2607 -1.25759e-10 
0.325226 -0.874152 -25.7321 -8.10294e-11 -15.6277 -1.87489e-10 
0.343511 -0.869236 -0.155493 -6.81899e-13 -14.5358 -1.86867e-10 
0.162492 -0.895997 1.61615e-11 -3.66126 -22.2748 -5.36584e-11 
0.180834 -0.889502 1.44649e-11 -3.74463 -21.3191 -7.32072e-11 
0.199227 -0.88286 1.12053e-11 -4.18593 -20.3337 -9.09433e-11 
0.25447 -0.902444 -28.4412 3.52074e-12 -20.4102 -1.60173e-10 
0.306831 -0.882102 0.614793 1.91208e-12 -16.9322 -1.88085e-10 
0.272975 -0.89544 1.1839e-11 -4.06039 -19.2066 -1.74532e-10 
0.288339 -0.889761 8.88978e-12 -4.26676 -18.2106 -1.82564e-10 
0.238566 -0.89104 9.92517e-12 -4.1088 -19.943 -1.34866e-10 
0.222501 -0.876792 7.74159e-12 -4.18704 -19.2379 -1.12923e-10 
0.030178 -0.863888 4.26081e-12 -4.39528 -21.1196 -2.00968e-11 
0.0146484 -0.853331 5.54334e-12 -4.27783 -20.3103 -2.40314e-11 
0 -0.839971 6.32117e-12 -4.34627 -19.2814 -2.81437e-11 
0.0439453 -0.880052 -29.5299 4.135e-11 -22.4155 -1.28519e-11 
0.141672 -0.909364 0.572515 1.77716e-12 -23.874 -2.82041e-11 
0.123649 -0.910516 -1.6831e-12 -3.85141 -24.2803 -1.63896e-11 
0.0603561 -0.887804 -26.1667 1.46407e-11 -22.979 -1.13811e-11 
0.0732422 -0.906772 0.00241394 -6.14014e-14 -24.5709 -8.58869e-13 
0.0927367 -0.893649 -1.16485e-12 -3.79167 -23.1879 -1.53628e-11 
0.108193 -0.896698 -2.73048e-12 -3.94226 -23.2574 -1.95159e-11 
0.144238 -0.894394 -4.31655e-13 -3.71186 -22.4813 -4.12506e-11 
0.152934 -0.880938 -9.29345e-12 -4.49505 -21.1709 -5.30704e-11 
0.570397 -0.821369 -1.06495e-11 -4.58414 -0.122891 1.74568e-10 
0.552572 -0.811951 -31.1448 5.06226e-11 -0.803202 1.37974e-10 
0.534747 -0.802532 -0.296505 -9.86433e-13 -1.43457 1.11831e-10 
0.484761 -0.814374 -1.21021e-11 -4.69693 -4.64608 3.64686e-11 
0.500082 -0.80441 -9.21863e-12 -4.47225 -3.38697 6.26661e-11 
0.516922 -0.793114 -1.61067e-11 -5.01379 -2.0188 8.65457e-11 
0.467448 -0.804574 -1.54192e-11 -4.92514 -5.05301 1.37068e-11 
0.364322 -0.859086 -1.48268e-11 -4.98493 -12.956 -1.70575e-10 
0.382257 -0.850156 -33.8622 1.07436e-10 -11.5893 -1.47892e-10 
0.450249 -0.815196 -2.50047 -7.32914e-12 -6.41768 -1.91973e-11 
0.397581 -0.842266 -7.45604e-12 -4.57366 -10.4098 -1.23494e-10 
0.432865 -0.822752 -1.69948e-11 -5.04054 -7.64873 -5.21889e-11 
0.415306 -0.835521 -34.2367 8.91482e-11 -9.19334 -9.28493e-11 
0.308109 -0.862879 -2.52893 -7.41096e-12 -15.4496 -1.63791e-10 
0.326336 -0.858773 -9.72133e-12 -4.71522 -14.4732 -1.65576e-10 
0.347762 -0.848218 -32.0378 8.16875e-11 -12.9113 -1.53156e-10 
0.206757 -0.868231 0.759402 2.08558e-12 -18.9641 -9.72165e-11 
0.170788 -0.874529 -1.06768e-11 -4.60542 -20.2853 -6.83018e-11 
0.188741 -0.867972 -1.21971e-11 -4.84884 -19.3692 -8.2812e-11 
0.256917 -0.883942 -1.11986e-11 -4.68557 -18.8017 -1.49477e-10 
0.289785 -0.870873 -1.38882e-11 -4.8106 -16.6916 -1.64e-10 
0.275232 -0.876589 -32.6821 6.79545e-11 -17.6261 -1.59202e-10 
0.24086 -0.872444 0.586477 1.51587e-12 -18.3739 -1.2724e-10 
0.224803 -0.860946 -1.16824e-11 -4.76948 -17.936 -1.0894e-10 
0.0463684 -0.85681 -7.01328e-12 -4.49886 -20.4708 -2.48876e-11 
0.0309122 -0.844531 -1.2681e-11 -4.79619 -19.5781 -2.81046e-11 
0.0154561 -0.832251 -9.2526e-12 -4.63816 -18.6835 -3.13936e-11 
0 -0.819972 -7.94165e-12 -4.38555 -17.8008 -3.41194e-11 
0.0618245 -0.86909 -5.61484e-12 -4.19518 -21.3738 -2.18057e-11 
0.128212 -0.891014 -7.62479e-12 -4.36128 -22.4621 -3.3034e-11 
0.0772806 -0.88137 -29.6351 3.90461e-11 -22.2777 -1.88942e-11 
0.102176 -0.882476 0.0872368 5.69579e-14 -22.1081 -2.56035e-11 
0.13764 -0.868841 -6.49569e-12 -4.28379 -20.4408 -4.86811e-11 
0.155262 -0.862297 -2.0679e-12 -3.88049 -19.6115 -6.04894e-11 
0.586899 -0.80966 -3.73923e-12 -4.0338 1.33911 1.98053e-10 
0.60316 -0.79762 -27.4038 2.41442e-11 2.75066 2.24033e-10 
0.569114 -0.800882 -0.0276255 -2.46822e-13 0.592475 1.63256e-10 
0.551329 -0.790892 -2.8002e-12 -3.96089 -0.0606094 1.31921e-10 
0.533544 -0.781508 -4.60032e-12 -4.12 -0.688163 1.06304e-10 
0.484454 -0.793647 3.13356e-11 -2.81668 -3.71142 4.17364e-11 
0.499097 -0.783696 -19.1368 -3.10816e-10 -2.55722 6.26486e-11 
0.51576 -0.772124 -1.39578 -6.63924e-12 -1.26952 8.33023e-11 
0.464361 -0.785522 2.97302e-11 -2.79837 -4.32942 1.80465e-11 
0.450135 -0.794775 2.973e-11 -2.69307 -5.41734 -3.86957e-12 
0.365637 -0.839278 3.12075e-11 -2.70383 -11.606 -1.36083e-10 
0.380295 -0.831731 3.1002e-11 -2.59062 -10.5249 -1.18027e-10 
0.432932 -0.80538 -17.6007 -3.32219e-10 -6.73295 -3.4174e-11 
0.398002 -0.822136 -1.2806 -6.02574e-12 -9.19893 -9.08367e-11 
0.415551 -0.81569 2.94623e-11 -2.58238 -8.06272 -6.49361e-11 
0.290885 -0.85436 2.92074e-11 -2.46959 -15.4427 -1.46902e-10 
0.30916 -0.84831 3.06156e-11 -2.47532 -14.3808 -1.47255e-10 
0.331202 -0.837349 2.87843e-11 -2.35661 -12.8372 -1.3709e-10 
0.345181 -0.830506 2.84004e-11 -2.24671 -11.87 -1.27439e-10 
0.220494 -0.845106 3.03609e-11 -2.35983 -16.865 -1.00323e-10 
0.202323 -0.852849 -16.0329 -3.27657e-10 -17.8859 -9.13714e-11 
0.173013 -0.855639 -1.16299 -5.21383e-12 -18.7426 -7.21991e-11 
0.254416 -0.867433 2.97868e-11 -2.24259 -17.584 -1.3518e-10 
0.272739 -0.859643 2.91099e-11 -2.12533 -16.4261 -1.42063e-10 
0.242852 -0.853458 -14.4389 -3.50317e-10 -16.8734 -1.18822e-10 
0.276433 -0.841796 -1.04348 -4.43351e-12 -15.0311 -1.28427e-10 
0.0641059 -0.845493 2.76558e-11 -2.13183 -19.4676 -3.228e-11 
0.0480794 -0.834113 2.67645e-11 -2.01097 -18.7062 -3.35829e-11 
0.0309122 -0.827608 2.81881e-11 -2.00665 -18.3 -3.30562e-11 
0.0157649 -0.812499 1.8492e-11 -1.29006 -17.252 -3.63771e-11 
0 -0.799973 2.58307e-11 -1.89482 -16.4053 -3.82601e-11 
0.0801324 -0.856873 2.46482e-11 -1.78209 -20.2263 -3.13891e-11 
0.112185 -0.868967 2.70792e-11 -1.88814 -20.835 -3.68585e-11 
0.0961589 -0.868253 -12.827 -2.81482e-10 -20.9766 -3.11138e-11 
0.131516 -0.854176 -0.922591 -3.51247e-12 -19.3758 -5.06812e-11 
0.157284 -0.843306 2.58434e-11 -1.76856 -18.1057 -6.42846e-11 
0.619175 -0.785253 2.05974e-11 -1.40988 4.10706 2.16902e-10 
0.634936 -0.772565 -9.57682 -2.88773e-11 5.40283 1.60567e-10 
0.650437 -0.75956 -0.67877 -1.4542e-12 6.63171 2.08492e-10 
0.665672 -0.746244 2.42838e-11 -1.64931 7.7899 2.50034e-10 
0.58542 -0.788866 -11.2042 -1.5349e-10 1.96651 1.79531e-10 
0.600964 -0.776863 -0.800843 -2.62501e-12 3.24838 1.86686e-10 
0.56768 -0.780112 2.16608e-11 -1.54755 1.23159 1.49056e-10 
0.54994 -0.771358 2.33208e-11 -1.66515 0.543209 1.23166e-10 
0.5322 -0.762604 2.25124e-11 -1.52934 -0.0980641 9.95539e-11 
0.481273 -0.774277 2.00341e-11 -1.43036 -3.05122 4.22985e-11 
0.497975 -0.762739 1.79434e-11 -1.31287 -1.80602 6.2239e-11 
0.51446 -0.75385 2.20184e-11 -3.74201 -0.695359 7.95088e-11 
0.463448 -0.764859 -25.426 -1.77715e-10 -3.50239 2.45566e-11 
0.44985 -0.774099 0.5268 2.08966e-12 -4.49975 7.16183e-12 
0.432822 -0.784975 2.14966e-11 -3.61567 -5.74496 -1.75655e-11 
0.363009 -0.821197 2.32228e-11 -3.65318 -10.6027 -1.10229e-10 
0.380697 -0.815893 2.03229e-11 -3.70314 -9.57667 -9.5e-11 
0.415614 -0.795564 2.81064e-11 -2.6762 -7.00818 -4.33182e-11 
0.398236 -0.805868 2.25762e-11 -3.52824 -8.28831 -7.03251e-11 
0.291984 -0.837847 2.51719e-11 -3.4753 -14.2569 -1.30489e-10 
0.310005 -0.829038 2.36107e-11 -3.43666 -13.0632 -1.25637e-10 
0.345722 -0.810663 2.43272e-11 -3.56324 -10.6478 -1.02732e-10 
0.332397 -0.817524 -24.2104 -2.22797e-10 -11.5464 -1.1325e-10 
0.192688 -0.837951 0.506426 2.13837e-12 -17.0029 -8.31131e-11 
0.230067 -0.831448 2.82492e-11 -2.77912 -15.6454 -9.96341e-11 
0.210472 -0.830327 -18.8821 -2.79803e-10 -16.0498 -8.94964e-11 
0.168602 -0.830703 0.389345 1.57764e-12 -16.9741 -7.00506e-11 
0.260881 -0.845745 2.66804e-11 -2.76878 -15.7803 -1.23859e-10 
0.244576 -0.834135 2.80869e-11 -2.88982 -15.4408 -1.08114e-10 
0.274809 -0.827384 2.68739e-11 -2.66319 -14.1027 -1.15219e-10 
0.239641 -0.81779 2.74799e-11 -3.09703 -14.4748 -9.67679e-11 
0.081246 -0.837985 2.64571e-11 -2.97983 -18.7574 -3.79865e-11 
0.0641059 -0.830827 2.65648e-11 -2.87689 -18.3572 -3.68683e-11 
0.0487476 -0.814781 2.78612e-11 -2.99997 -17.2969 -3.82805e-11 
0.032053 -0.8054 -20.3832 -2.74168e-10 -16.7158 -3.83604e-11 
0.0162492 -0.791576 0.41513 1.69459e-12 -15.8303 -3.98312e-11 
0 -0.779973 2.50648e-11 -3.25825 -15.0969 -4.07994e-11 
0.124209 -0.837832 2.41771e-11 -3.35019 -18.2363 -5.08571e-11 
0.107054 -0.844648 2.56928e-11 -3.38644 -18.976 -4.35572e-11 
0.141556 -0.830973 -23.0091 -2.36591e-10 -17.4669 -5.80398e-11 
0.151742 -0.819631 0.480588 1.94539e-12 -16.4939 -6.24265e-11 
0.680634 -0.732623 2.61896e-11 -3.07454 8.87265 1.8098e-10 
0.695318 -0.718702 2.56892e-11 -3.16365 9.87522 1.15379e-10 
0.616795 -0.764205 2.64633e-11 -3.29049 4.51411 1.76477e-10 
0.632369 -0.751239 2.71676e-11 -3.19343 5.717 1.77697e-10 
0.647181 -0.738293 -21.6976 -2.484e-10 6.81751 1.89607e-10 
0.662239 -0.724714 0.456496 1.94558e-12 7.8821 1.75055e-10 
0.582753 -0.768472 1.47962e-11 -3.62045 2.44013 1.5817e-10 
0.598654 -0.754703 1.99132e-11 -3.57834 3.70511 1.59772e-10 
0.564542 -0.758318 1.86502e-11 -3.51808 1.73402 1.32304e-10 
0.546331 -0.751692 1.74201e-11 -3.60052 0.972589 1.10603e-10 
0.52812 -0.74036 1.87297e-11 -3.66336 0.39774 8.97842e-11 
0.48019 -0.753355 -24.8897 -1.28978e-10 -2.29936 4.47617e-11 
0.49672 -0.745096 -0.142054 -7.05734e-13 -1.2486 6.0738e-11 
0.509909 -0.734911 1.72709e-11 -3.4577 -0.3052 7.19981e-11 
0.445623 -0.755441 1.58904e-11 -3.42757 -3.91336 1.107e-11 
0.462405 -0.748213 1.47826e-11 -3.50714 -2.90662 2.82678e-11 
0.428641 -0.766635 1.62987e-11 -3.5379 -5.1 -9.7562e-12 
0.41551 -0.775175 -24.0405 -1.03072e-10 -6.03215 -2.71025e-11 
0.363393 -0.801079 0.0379813 -3.747e-15 -9.4356 -8.61813e-11 
0.380921 -0.796047 8.16236e-13 -3.57611 -8.47637 -7.1676e-11 
0.398297 -0.785748 -24.2986 1.40243e-12 -7.2475 -4.94129e-11 
0.346088 -0.796264 -0.00223271 -2.17264e-13 -9.81609 -8.7752e-11 
0.427798 -0.746022 1.74083e-13 -3.65374 -4.28115 -7.61169e-13 
0.292783 -0.818534 1.114e-12 -3.53614 -12.9628 -1.12477e-10 
0.310663 -0.809453 1.83031e-12 -3.44409 -11.819 -1.06246e-10 
0.328436 -0.800129 -5.3697e-12 -4.3968 -10.6654 -9.52953e-11 
0.194282 -0.818762 -3.39662e-12 -4.32187 -15.6262 -7.9198e-11 
0.211965 -0.810914 -6.38001e-12 -4.63031 -14.7077 -8.32294e-11 
0.169611 -0.811614 -31.462 7.838e-11 -15.6341 -6.78542e-11 
0.257633 -0.816921 0.668927 1.89576e-12 -13.919 -1.02532e-10 
0.27556 -0.808031 -5.9508e-12 -4.53241 -12.8416 -1.00538e-10 
0.240378 -0.802407 -4.55547e-12 -4.59284 -13.468 -8.84279e-11 
0.223282 -0.795995 -4.18554e-12 -4.50457 -13.4863 -8.1207e-11 
0.0986369 -0.830626 -5.24403e-12 -4.43506 -18.0291 -4.41407e-11 
0.0764669 -0.820456 -30.1398 5.79128e-11 -17.509 -4.11662e-11 
0.0657579 -0.807075 -0.35213 -1.07973e-12 -16.6527 -4.18696e-11 
0.0458801 -0.796263 -3.83271e-12 -4.40926 -16.0444 -4.07399e-11 
0.032879 -0.783525 3.46945e-12 -4.32482 -15.2646 -4.12301e-11 
0.0152934 -0.77207 1.18328e-12 -4.37298 -14.59 -4.07105e-11 
0 -0.759974 -4.48974e-13 -4.49865 -13.8721 -4.12959e-11 
0.116216 -0.823325 1.86762e-12 -4.44246 -17.2857 -5.02904e-11 
0.134882 -0.808558 -30.1867 5.63478e-11 -16.002 -5.68967e-11 
0.15265 -0.80045 0.658622 2.07312e-12 -15.1868 -6.17622e-11 
0.709717 -0.704487 -2.56084e-12 -4.55313 10.7946 1.21833e-10 
0.67702 -0.710841 -30.9392 7.22071e-11 8.87046 1.45083e-10 
0.69104 -0.697 0.647183 1.77608e-12 9.7498 1.30175e-10 
0.614302 -0.742917 -2.42983e-12 -4.46685 4.85206 1.60357e-10 
0.62969 -0.72969 -8.18678e-13 -4.42678 5.96312 1.62055e-10 
0.643843 -0.715724 1.06339e-11 -3.98546 6.95662 1.55907e-10 
0.658722 -0.70298 1.11811e-11 -3.8746 7.91512 1.43463e-10 
0.580513 -0.747486 1.23586e-11 -3.93738 2.88766 1.40104e-10 
0.596234 -0.734595 -26.7544 -3.45537e-11 4.03655 1.43014e-10 
0.562372 -0.736841 -0.162842 -7.49026e-13 2.20685 1.18791e-10 
0.544231 -0.730767 1.28684e-11 -3.8181 1.45417 1.00718e-10 
0.52609 -0.718979 1.17626e-11 -3.75718 0.896969 8.28261e-11 
0.47898 -0.736342 1.32356e-11 -3.70129 -1.75844 4.51633e-11 
0.491698 -0.722403 -25.1506 -5.95985e-11 -0.754867 5.53996e-11 
0.507949 -0.710049 0.0420617 -3.05086e-14 0.309643 6.68225e-11 
0.44462 -0.739435 1.20342e-11 -3.62555 -3.33951 1.54443e-11 
0.46124 -0.727588 1.33473e-11 -3.58694 -2.22726 3.11442e-11 
0.328784 -0.780022 6.81921e-12 -4.12099 -9.53913 -7.72973e-11 
0.415246 -0.754552 8.1124e-12 -3.95501 -5.13466 -1.43854e-11 
0.398197 -0.765375 8.91975e-12 -4.03182 -6.28542 -3.36644e-11 
0.363607 -0.786226 -27.3943 -3.2081e-12 -8.63052 -7.14753e-11 
0.38098 -0.775932 -0.170773 -7.46826e-13 -7.45066 -5.26099e-11 
0.346292 -0.776405 9.46154e-12 -3.92068 -8.74955 -6.94387e-11 
0.426836 -0.730657 4.07852e-12 -4.14055 -3.73269 4.446e-12 
0.409973 -0.736604 6.08269e-12 -4.04147 -4.61248 -9.33453e-12 
0.299157 -0.795769 2.56528e-12 -4.25726 -11.3777 -9.32969e-11 
0.31148 -0.776636 4.81593e-12 -4.20925 -9.92017 -7.69678e-11 
0.187508 -0.803498 -28.6007 2.80895e-11 -14.7467 -7.25837e-11 
0.205406 -0.795245 -0.142595 -7.41976e-13 -13.845 -7.6481e-11 
0.170462 -0.792268 1.66533e-14 -3.67953 -14.3527 -6.55076e-11 
0.276145 -0.788401 5.34683e-13 -3.61206 -11.6443 -8.72942e-11 
0.241115 -0.787024 -5.1692e-13 -3.73154 -12.5102 -8.12972e-11 
0.258338 -0.797528 -25.3526 8.87912e-12 -12.6856 -9.02087e-11 
0.223893 -0.776521 0.00576476 -8.40695e-14 -12.3063 -7.28773e-11 
0.0996135 -0.811417 -1.28475e-12 -3.80948 -16.6458 -4.67866e-11 
0.0830112 -0.79951 -3.70792e-12 -4.28503 -16.002 -4.50342e-11 
0.066409 -0.787603 -2.00862e-12 -4.15473 -15.3529 -4.38005e-11 
0.0498067 -0.775696 -6.39333e-12 -4.37787 -14.6995 -4.28564e-11 
0.0310523 -0.764439 -4.90474e-12 -4.27922 -14.089 -4.21174e-11 
0.0166022 -0.751882 -8.32223e-12 -4.48478 -13.3823 -4.12674e-11 
0 -0.739975 -5.39147e-12 -4.35768 -12.7272 -4.11777e-11 
0.111331 -0.799805 -29.6105 4.94786e-11 -15.7266 -5.08935e-11 
0.135689 -0.789287 -0.0585293 -2.01165e-13 -14.7278 -5.62084e-11 
0.153416 -0.781039 -7.79155e-12 -4.40668 -13.9406 -5.89067e-11 
0.723825 -0.689983 -29.9447 4.55369e-11 11.6272 1.83968e-10 
0.737637 -0.675197 -0.227402 -8.44852e-13 12.3697 1.31716e-10 
0.751148 -0.660134 -7.00418e-12 -4.45835 13.0204 7.41727e-11 
0.705266 -0.682547 -6.00298e-12 -4.30392 10.5769 1.34972e-10 
0.672363 -0.688461 -8.76388e-12 -4.56027 8.76158 1.29545e-10 
0.686706 -0.675112 -30.978 6.30642e-11 9.57636 1.22421e-10 
0.611699 -0.721413 0.623951 1.56236e-12 5.12299 1.42897e-10 
0.625448 -0.708896 -6.4857e-12 -4.30535 6.05224 1.40648e-10 
0.640424 -0.695119 -3.71858e-12 -4.22626 7.00938 1.33366e-10 
0.653687 -0.682026 -3.22919e-12 -4.03221 7.8113 1.24657e-10 
0.578166 -0.726274 -5.41078e-12 -4.20556 3.2686 1.24988e-10 
0.593707 -0.713135 -28.575 3.41753e-11 4.33017 1.2657e-10 
0.560099 -0.717952 0.0341681 -8.87259e-14 2.54591 1.07396e-10 
0.542031 -0.709631 -1.8312e-12 -3.88756 1.87022 9.12146e-11 
0.76435 -0.644801 -26.4104 1.6918e-11 13.5769 1.21089e-10 
0.77724 -0.629205 -0.0032102 -1.36571e-13 14.0377 8.36406e-11 
0.523963 -0.701309 -3.42548e-12 -4.04426 1.23566 7.60903e-11 
0.473487 -0.718131 -4.82614e-12 -4.20498 -1.41014 4.18225e-11 
0.505896 -0.692988 -4.40536e-13 -3.7555 0.647413 6.26039e-11 
0.489808 -0.705689 -1.46638e-12 -3.87605 -0.358593 5.32226e-11 
0.4435 -0.718834 1.62297e-11 -1.1709 -2.65682 1.92344e-11 
0.455276 -0.704446 -7.95337 -1.4079e-11 -1.73686 2.95538e-11 
0.42576 -0.71008 -0.556902 -5.19779e-13 -3.04908 1.02405e-11 
0.328906 -0.763253 1.5888e-11 -1.19594 -8.67338 -6.41251e-11 
0.392921 -0.747747 1.37492e-11 -1.08206 -5.71173 -2.57703e-11 
0.380884 -0.755576 1.37007e-11 -1.05173 -6.50094 -3.80029e-11 
0.363663 -0.766116 1.11751e-11 -0.933409 -7.62009 -5.45115e-11 
0.346345 -0.7563 -6.33948 5.77534e-11 -7.7557 -5.34834e-11 
0.394847 -0.728442 -0.435764 4.379e-13 -4.85416 -1.47626e-11 
0.409051 -0.721879 8.40517e-12 -0.81541 -4.08739 -3.29381e-12 
0.294175 -0.766821 1.11839e-11 -0.965793 -9.92702 -7.20024e-11 
0.311663 -0.756762 8.73668e-12 -0.849841 -8.89436 -6.35754e-11 
0.171172 -0.772701 6.06015e-12 -0.734846 -13.1472 -6.14069e-11 
0.206412 -0.775795 2.55279e-12 -0.582101 -12.6492 -6.94786e-11 
0.188931 -0.775069 5.43937e-12 -0.698423 -12.9539 -6.579e-11 
0.241627 -0.767348 -4.74255 1.08708e-10 -11.3702 -7.12856e-11 
0.265918 -0.774015 -0.315877 1.33217e-12 -11.1147 -7.68425e-11 
0.276871 -0.757007 3.22742e-12 -0.620511 -9.9111 -6.67759e-11 
0.215281 -0.76127 2.81111e-11 -2.57291 -11.6386 -6.55054e-11 
0.101161 -0.786412 -17.4804 -2.84536e-10 -14.9705 -4.90941e-11 
0.0795219 -0.776997 0.358412 1.48022e-12 -14.5825 -4.57208e-11 
0.0636175 -0.765593 2.79053e-11 -2.46262 -14.0015 -4.41434e-11 
0.0471853 -0.756974 2.6651e-11 -2.56227 -13.5819 -4.2844e-11 
0.0318087 -0.742784 2.6451e-11 -2.45442 -12.8311 -4.17302e-11 
0.0168602 -0.731048 2.73201e-11 -2.35211 -12.2248 -4.05209e-11 
0 -0.719975 -15.9807 -2.83848e-10 -11.6585 -4.03073e-11 
0.118728 -0.778123 0.336443 1.41602e-12 -14.2526 -5.16343e-11 
0.136369 -0.76981 2.70747e-11 -2.24465 -13.5173 -5.42588e-11 
0.15458 -0.754144 2.61734e-11 -2.34638 -12.3484 -5.48077e-11 
0.719197 -0.667817 2.58094e-11 -2.24606 11.3171 1.26367e-10 
0.732369 -0.653131 2.655e-11 -2.13692 11.9469 1.01927e-10 
0.745707 -0.637855 -14.5178 -2.78717e-10 12.5101 9.36908e-11 
0.69981 -0.661084 0.290216 1.12607e-12 10.2653 1.15827e-10 
0.668147 -0.667676 2.53766e-11 -2.14064 8.62424 1.15829e-10 
0.682315 -0.653056 2.44953e-11 -2.02024 9.35672 1.07065e-10 
0.607052 -0.698825 2.57052e-11 -2.0185 5.24242 1.2334e-10 
0.622127 -0.687258 1.35958e-11 -1.10767 6.1508 1.22065e-10 
0.63501 -0.672434 2.47519e-11 -1.90022 6.93075 1.14176e-10 
0.649587 -0.66024 -12.9092 -2.46358e-10 7.71894 1.08478e-10 
0.575716 -0.704858 0.266248 9.3614e-13 3.58269 1.10584e-10 
0.588657 -0.693078 2.35999e-11 -1.90438 4.41621 1.11239e-10 
0.554727 -0.698534 2.35612e-11 -1.78973 2.70295 9.48058e-11 
0.539734 -0.688303 2.25846e-11 -1.80043 2.22136 8.21829e-11 
0.789811 -0.61335 1.76517e-11 -1.33404 14.4023 2.11706e-11 
0.758283 -0.62215 1.55482e-11 -1.24766 12.9553 8.17444e-11 
0.771006 -0.606841 1.55725e-11 -1.2194 13.3417 5.89608e-11 
0.802059 -0.597244 -8.2832 -3.29523e-11 14.6693 8.21245e-11 
0.517745 -0.682631 0.171148 -3.39312e-14 1.3818 6.75469e-11 
0.471667 -0.69733 1.35182e-11 -1.1348 -0.8779 4.07576e-11 
0.503752 -0.671749 2.23259e-11 -1.67951 1.02871 5.75933e-11 
0.487828 -0.684666 -11.4095 -1.80047e-10 0.098424 5.01224e-11 
0.437065 -0.695468 0.230508 5.00974e-13 -2.16452 1.9338e-11 
0.453526 -0.68897 2.15533e-11 -1.6924 -1.35856 2.94253e-11 
0.40802 -0.701326 2.0095e-11 -1.57938 -3.40511 2.33391e-12 
0.418854 -0.686489 2.09476e-11 -1.56418 -2.55526 1.15735e-11 
0.329028 -0.746484 1.92835e-11 -1.4493 -7.86289 -5.30807e-11 
0.380642 -0.735004 -9.84549 -9.56466e-11 -5.62853 -2.56071e-11 
0.363571 -0.745776 0.201646 3.54924e-13 -6.68246 -4.00817e-11 
0.346258 -0.735976 1.87293e-11 -1.46674 -6.83594 -4.11511e-11 
0.374323 -0.717767 1.72233e-11 -1.36031 -5.16171 -2.06575e-11 
0.391266 -0.706434 2.50913e-11 -2.44505 -4.16417 -7.80465e-12 
0.294348 -0.746941 2.02638e-12 -3.40524 -8.92008 -6.01683e-11 
0.308184 -0.738599 3.44014e-12 -3.19105 -8.12511 -5.28022e-11 
0.181374 -0.759266 2.64433e-12 -3.31576 -12.1949 -5.95346e-11 
0.198328 -0.760268 -22.527 -1.10516e-11 -11.9294 -6.22649e-11 
0.224557 -0.746877 0.000590919 -7.69362e-14 -10.6635 -6.04583e-11 
0.242006 -0.747458 2.90568e-12 -3.27127 -10.2995 -6.16462e-11 
0.259566 -0.747193 2.04521e-11 -3.36294 -9.85617 -6.21823e-11 
0.277034 -0.73712 1.97653e-11 -3.43433 -8.91835 -5.62914e-11 
0.207109 -0.746295 2.18225e-11 -3.40318 -10.9986 -5.89724e-11 
0.0963441 -0.768963 2.09974e-11 -3.49226 -13.9423 -4.78044e-11 
0.0802867 -0.757465 -23.7277 -1.71421e-10 -13.403 -4.52394e-11 
0.0642294 -0.745968 -0.138956 -8.37004e-13 -12.8593 -4.39209e-11 
0.0508833 -0.733467 2.38936e-11 -2.4345 -12.2448 -4.1994e-11 
0.0339222 -0.722304 2.41386e-11 -2.53752 -11.7242 -4.06359e-11 
0.0169611 -0.71114 2.54229e-11 -2.55046 -11.1948 -3.99574e-11 
0 -0.699976 -17.328 -2.48044e-10 -10.6639 -3.88853e-11 
0.119323 -0.758581 -0.0962745 -5.9348e-13 -13.0811 -5.00746e-11 
0.136937 -0.750156 2.54933e-11 -2.65398 -12.3802 -5.12999e-11 
0.165279 -0.738555 2.33848e-11 -3.2238 -11.3401 -5.2057e-11 
0.148397 -0.737577 2.21098e-11 -3.19009 -11.5401 -5.02727e-11 
0.71359 -0.646127 2.12586e-11 -3.27538 10.922 1.02885e-10 
0.727065 -0.630908 2.27574e-11 -3.31316 11.4897 8.97438e-11 
0.739326 -0.616072 -22.5118 -2.00874e-10 11.9327 7.91345e-11 
0.694811 -0.639123 -0.128509 -8.27061e-13 9.94308 9.72484e-11 
0.661982 -0.64697 2.40659e-11 -2.63862 8.35429 1.00925e-10 
0.676033 -0.63212 2.53279e-11 -2.85814 9.01025 9.27374e-11 
0.603829 -0.679397 2.41215e-11 -2.72537 5.33904 1.09284e-10 
0.616333 -0.667053 2.53509e-11 -2.75713 6.06535 1.05783e-10 
0.631027 -0.652804 -18.7322 -2.4462e-10 6.861 1.00142e-10 
0.645433 -0.638296 -0.111765 -6.58529e-13 7.58118 9.365e-11 
0.570261 -0.681925 2.51438e-11 -2.95864 3.72072 9.5606e-11 
0.585531 -0.671536 -20.1012 -2.34007e-10 4.57196 9.77487e-11 
0.551866 -0.677259 -0.110863 -5.59601e-13 2.96496 8.4621e-11 
0.53347 -0.66935 2.39988e-11 -2.82399 2.30381 7.18889e-11 
0.782963 -0.590643 2.36331e-11 -2.93643 13.6024 5.87033e-11 
0.752201 -0.600333 2.47699e-11 -3.04618 12.3257 6.57958e-11 
0.763866 -0.584042 2.33317e-11 -3.02179 12.5801 5.5643e-11 