VARIABLES= "x" , "y" , "phir","phii","pr","pi" 
ZONE F=FEPOINT,ET=TRIANGLE,N=11268,E=22174
1 4.15719e-34 0.00875147 -0.00276637 -0.00218094 -0.00689944 
0.961556 6.09929e-34 0.00943808 -0.00298341 -0.00220248 -0.0069676 
0.563671 2.34695e-33 0.00889086 -0.00281043 -0.00220584 -0.00697822 
0.596828 2.21081e-33 0.00911442 -0.0028811 -0.00220889 -0.00698785 
0.331571 2.82793e-33 0.00273955 0.00866662 -0.00218603 -0.00691556 
0.298414 2.8973e-33 0.00283542 0.0089699 -0.00218379 -0.00690847 
0.265257 2.9355e-33 0.00833825 -0.00263575 -0.00218173 -0.00690195 
0.928399 7.81198e-34 0.00857905 -0.00271187 -0.00221079 -0.00699389 
0.895242 9.59398e-34 0.00783291 -0.00247601 -0.00221701 -0.00701357 
0.862084 1.14487e-33 -0.000740131 0.000233958 -0.00222017 -0.00702354 
1.02592 0.0491832 -0.0002239 -0.000708313 -0.00218604 -0.00691559 
0.964087 0.0445942 -0.000217287 -0.000687392 -0.00220679 -0.00698122 
0.729456 1.74386e-33 -0.00121662 0.000384579 -0.00221921 -0.00702053 
0.828927 1.3156e-33 -0.000730855 0.000231026 -0.00222165 -0.00702824 
0.862984 0.0373872 -0.000240491 7.60201e-05 -0.0022214 -0.00702745 
0.79577 1.46749e-33 -0.00119363 0.00037731 -0.00222168 -0.00702833 
0.762613 1.6377e-33 -0.00161738 0.000511258 -0.00222077 -0.00702545 
0.758022 0.0277524 -0.0021151 0.000668592 -0.00222086 -0.00702574 
0.696299 1.8699e-33 -0.0016765 0.000529948 -0.00221707 -0.00701374 
0.629985 2.12876e-33 -0.000504178 -0.00159498 -0.00221179 -0.00699704 
0.663142 2.0261e-33 -0.000506747 -0.00160311 -0.00221459 -0.00700589 
1.05648 0.103091 -0.00253481 0.000801263 -0.00221758 -0.00701535 
0.2321 2.97213e-33 -0.00076249 -0.00241215 -0.00217988 -0.0068961 
0.198943 3.00553e-33 -0.00077195 -0.00244208 -0.00217827 -0.00689101 
0.24471 0.026372 -0.0020418 0.000645419 -0.00218039 -0.0068977 
0.165785 3.03446e-33 -0.00241736 0.000764137 -0.00217689 -0.00688663 
0.624772 0.0363186 -0.00291908 0.000922732 -0.00221136 -0.00699569 
0.530514 2.41637e-33 -0.00391805 0.00123851 -0.00220277 -0.00696852 
0.497356 2.50563e-33 -0.00118017 -0.0037335 -0.00219974 -0.00695891 
0.364728 2.78893e-33 -0.00119909 -0.00379335 -0.00218848 -0.0069233 
0.397885 2.73468e-33 -0.00375541 0.0011871 -0.00219109 -0.00693155 
0.557503 0.0377777 -0.00418636 0.00132332 -0.00220518 -0.00697614 
0.588339 0.0533306 -0.00361106 0.00114147 -0.00220799 -0.00698501 
0.344318 0.0265111 0.0018955 -0.000599174 -0.00218679 -0.00691794 
0.293416 0.035916 0.00299774 -0.000947597 -0.00218318 -0.00690653 
0.923519 0.0437636 0.00232596 -0.000735243 -0.00221536 -0.00700833 
0.893281 0.040599 0.00179638 -0.000567843 -0.00221922 -0.00702056 
0.9975 0.0956053 0.00244897 -0.000774128 -0.00221824 -0.00701746 
0.9585 0.0801492 0.000732995 0.00231884 -0.00221725 -0.00701433 
0.72747 0.0365066 0.000769403 0.00243402 -0.00221934 -0.00702092 
0.857329 0.0824499 0.00027355 -8.647e-05 -0.00222569 -0.00704101 
0.825774 0.0387479 7.86512e-05 0.000248815 -0.00222242 -0.00703068 
0.790408 0.0396869 9.62039e-05 0.000304343 -0.00222228 -0.00703024 
0.753175 0.0570402 0.00135127 -0.000427142 -0.00222129 -0.00702711 
0.691299 0.0534673 0.000402759 0.00127414 -0.00221702 -0.00701358 
0.658539 0.0385004 0.000429619 0.00135911 -0.00221428 -0.00700492 
1.02167 0.153957 -0.000245542 7.76168e-05 -0.00224843 -0.00711294 
1.08782 0.156241 0.000239118 -7.55862e-05 -0.00226132 -0.00715374 
0.257369 0.0527214 0.000755239 -0.000238734 -0.00218067 -0.00689858 
0.211436 0.0256659 0.000806304 -0.000254876 -0.0021787 -0.00689238 
0.178164 0.0258695 0.0012679 -0.000400788 -0.00217723 -0.00688772 
0.223973 0.0513154 0.00665553 -0.00210384 -0.00217891 -0.00689302 
0.0994713 3.0775e-33 0.00200266 0.00633546 -0.00217488 -0.00688026 
0.132628 3.05284e-33 0.00207272 0.0065571 -0.00217582 -0.00688324 
0.144906 0.0252252 0.00632011 -0.00199781 -0.00217602 -0.00688388 
0.0663142 3.08753e-33 0.00616621 -0.00194916 -0.00217427 -0.00687835 
0.620124 0.0765422 0.00711 -0.0022475 -0.00221091 -0.00699425 
0.583838 0.0880426 0.00722167 -0.0022828 -0.00220728 -0.00698278 
0.523982 0.0361131 0.00702808 -0.0022216 -0.00220205 -0.00696623 
0.536936 0.062902 0.00756109 -0.00239009 -0.00220299 -0.00696921 
0.464199 2.58704e-33 0.00227064 0.00718321 -0.00219674 -0.00694943 
0.490593 0.036706 0.00235352 0.00744541 -0.00219895 -0.00695644 
0.431042 2.64612e-33 0.00797425 -0.00252069 -0.0021939 -0.00694044 
0.392718 0.0358661 0.00798006 -0.00252253 -0.00219045 -0.00692953 
0.549938 0.0896265 0.00742367 -0.00234665 -0.00220394 -0.0069722 
0.324178 0.0538097 0.00759053 -0.00239939 -0.00218494 -0.0069121 
0.357115 0.0529864 0.00228204 0.00721927 -0.00218737 -0.00691978 
0.288037 0.0702224 -0.000916564 -0.00289957 -0.0021821 -0.0069031 
0.936139 0.104704 0.0070514 -0.00222897 -0.00222689 -0.0070448 
0.897522 0.0933177 0.00676093 -0.00213715 -0.00222639 -0.00704322 
0.978711 0.13657 0.00838248 -0.00264973 -0.00223763 -0.0070788 
1.00282 0.18452 0.00251751 0.00796418 -0.00226071 -0.0071518 
0.853325 0.118726 0.00260831 0.00825146 -0.00223013 -0.00705507 
0.724947 0.0721987 0.00584596 -0.00184793 -0.00221989 -0.00702266 
0.818767 0.0976413 0.00669933 -0.00211768 -0.00222646 -0.00704346 
0.797826 0.0756586 0.00834716 -0.00263857 -0.0022241 -0.00703598 
0.759755 0.0913662 0.0081746 -0.00258402 -0.00222289 -0.00703217 
0.652761 0.0903961 0.0094457 -0.00298582 -0.00221399 -0.007004 
0.688273 0.0848232 0.00862248 -0.0027256 -0.00221715 -0.007014 
1.02026 0.219615 0.00259163 0.00819868 -0.00228065 -0.0072149 
1.05644 0.207555 -0.00123631 -0.00391109 -0.00228563 -0.00723064 
1.11958 0.207009 0.00917719 -0.00290094 -0.00230966 -0.00730665 
-0.563671 2.33375e-33 0.00975495 -0.00308357 -0.00220623 -0.00697947 
0.2517 0.0860599 0.00293097 0.00927219 -0.00217937 -0.00689448 
0.190589 0.0517249 0.00303426 0.00959895 -0.00217731 -0.00688797 
0.15723 0.0504387 0.0100339 -0.00317175 -0.002176 -0.00688382 
0.218203 0.0839425 0.00879459 -0.00278 -0.00217764 -0.00688902 
0.0331571 3.09488e-33 0.00745682 -0.00235713 -0.0021739 -0.00687719 
0.0935384 0.0338761 0.00745042 -0.0023551 -0.00217452 -0.00687915 
0.123832 0.0507951 0.00806487 -0.00254933 -0.00217494 -0.00688048 
0.0602637 0.0330812 0.00242387 0.00766795 -0.00217396 -0.00687737 
1.72177e-15 3.0976e-33 -0.0006935 -0.0021939 -0.00217388 -0.0068771 
-0.0331571 3.09482e-33 0.00790678 -0.00249936 -0.00217413 -0.0068779 
-0.0663142 3.08734e-33 0.00686479 -0.00216998 -0.00217453 -0.00687917 
-0.0994713 3.07482e-33 0.00206543 0.00653403 -0.00217519 -0.00688126 
-0.895242 9.87584e-34 0.000385954 0.00122097 -0.00221758 -0.00701536 
-0.928399 7.88565e-34 0.00645987 -0.00204199 -0.00221199 -0.00699768 
-0.663142 2.01566e-33 0.00687078 -0.00217188 -0.00221498 -0.00700714 
-0.696299 1.88502e-33 0.00639597 -0.00202179 -0.00221747 -0.00701502 
0.64927 0.124778 -0.00535519 0.00169279 -0.00221377 -0.00700331 
0.616347 0.106366 -0.00110828 0.000350331 -0.00221041 -0.00699267 
0.57991 0.128177 -0.000721359 0.000228024 -0.00220631 -0.00697972 
0.522307 0.0898335 -0.000218436 -0.000691026 -0.00220117 -0.00696345 
0.48484 0.07228 8.21649e-05 0.00025993 -0.00219792 -0.00695317 
0.457149 0.0352808 -0.000699192 0.000221017 -0.00219596 -0.00694698 
0.424178 0.0541689 -0.000262951 8.31198e-05 -0.00219282 -0.00693703 
0.388406 0.0708479 -0.00114973 0.000363434 -0.00218944 -0.00692634 
0.511643 0.125088 -0.00401593 0.00126945 -0.00219922 -0.00695727 
0.543682 0.1434 -0.00443431 0.0014017 -0.00220206 -0.00696628 
0.31888 0.0845322 -0.00133402 -0.00422019 -0.00218373 -0.00690827 
0.352681 0.0870667 -0.0013584 -0.00429734 -0.00218614 -0.0069159 
0.283121 0.10359 -0.00422206 0.00133461 -0.00218056 -0.00689825 
0.315287 0.117342 -0.00464376 0.00146791 -0.00218214 -0.00690324 
0.915454 0.139231 -0.0053509 0.00169144 -0.00223642 -0.00707494 
0.952193 0.193381 -0.00530011 0.00167538 -0.00225572 -0.00713603 
0.986015 0.230989 -0.0015954 -0.00504708 -0.00227533 -0.00719805 
0.829585 0.141826 -0.00162501 -0.00514075 -0.00223155 -0.00705956 
0.867477 0.174558 -0.00521858 0.00164961 -0.00224013 -0.00708671 
0.720959 0.114981 -0.00510374 0.00161331 -0.00222069 -0.00702519 
0.757123 0.125871 -0.0049857 0.001576 -0.0022244 -0.00703694 
0.793191 0.133369 -0.00278829 0.000881387 -0.00222795 -0.00704818 
0.700639 0.143665 -0.00308563 0.000975379 -0.00221948 -0.00702136 
0.652996 0.155116 -0.00345745 0.00109291 -0.00221422 -0.00700473 
0.68525 0.116199 -0.00328363 0.00103797 -0.0022174 -0.00701479 
1.03004 0.265152 -0.000988847 -0.00312824 -0.00230241 -0.00728371 
1.08384 0.254822 -0.00100328 -0.0031739 -0.00232096 -0.00734242 
1.15097 0.255671 -0.00155973 0.000493035 -0.0023582 -0.00746021 
-0.364728 2.78486e-33 -0.000469416 -0.00148501 -0.00218883 -0.00692441 
-0.397885 2.72545e-33 0.000127811 0.000404332 -0.00219147 -0.00693277 
-0.431042 2.67187e-33 -0.00147526 0.000466335 -0.00219424 -0.00694152 
-0.265257 2.9363e-33 -0.0022163 0.000700582 -0.00218207 -0.00690301 
-0.298414 2.89831e-33 -0.00261264 0.000825866 -0.00218412 -0.00690951 
-0.331571 2.82834e-33 -0.00186473 0.000589448 -0.00218643 -0.00691682 
-0.629985 2.11983e-33 -0.0019415 0.000613714 -0.00221221 -0.00699837 
-0.596828 2.23308e-33 -0.00230388 0.000728264 -0.00220927 -0.00698908 
-0.658758 0.0352024 -0.000693673 -0.00219445 -0.00221469 -0.00700623 
-0.591068 0.0343604 0.000364794 0.00115403 -0.00220871 -0.0069873 
-0.464199 2.56811e-33 -0.00325091 0.00102762 -0.00219717 -0.00695079 
-0.497356 2.52319e-33 -0.00359761 0.00113722 -0.0022001 -0.00696007 
-0.559259 0.0268705 -0.00108404 -0.00342939 -0.00220578 -0.00697803 
-0.530514 2.40393e-33 0.000539647 0.00170718 -0.0022032 -0.00696986 
0.117466 0.0850884 -0.00345396 0.00109181 -0.00217367 -0.00687644 
0.247165 0.118968 -0.00381783 0.00120683 -0.00217768 -0.00688912 
0.184651 0.084558 -0.00538518 0.00170227 -0.0021761 -0.00688414 
0.151027 0.0850383 -0.00162091 -0.00512779 -0.00217477 -0.00687994 
0.213426 0.11617 -0.00165103 -0.00522307 -0.00217598 -0.00688375 
-0.198943 3.01093e-33 -0.00516879 0.00163387 -0.0021786 -0.00689204 
-0.2321 2.9651e-33 -0.00538535 0.00170233 -0.00218028 -0.00689736 
-0.132628 3.0572e-33 -0.00162101 -0.0051281 -0.00217608 -0.00688406 
-0.165785 3.0331e-33 -0.00165081 -0.00522238 -0.00217723 -0.0068877 
0.0301352 0.033087 -0.00515326 0.00162896 -0.00217364 -0.00687635 
0.0402193 0.059119 -0.0051812 0.00163779 -0.00217313 -0.00687473 
0.0830453 0.0808686 -0.00518875 0.00164018 -0.00217307 -0.00687454 
-4.91266e-07 0.033089 -0.00539278 0.00170468 -0.00217367 -0.00687645 
-0.0301355 0.033087 0.000690248 -0.00021819 -0.00217387 -0.00687707 
-0.126851 0.0336441 0.00409218 -0.00129355 -0.00217564 -0.00688268 
-0.0602653 0.0330809 0.00330673 -0.00104527 -0.00217419 -0.00687808 
-0.0935361 0.0338764 0.00355281 -0.00112305 -0.00217479 -0.00688 
0.10009 0.106897 0.00106564 0.00337117 -0.00217224 -0.00687192 
-0.244707 0.0263738 0.0011112 0.00351529 -0.00218072 -0.00689876 
-0.862084 1.10208e-33 0.00285965 -0.000903946 -0.00222063 -0.00702502 
-0.878572 0.0210449 0.00477139 -0.00150825 -0.00222 -0.00702303 
-0.961556 5.88058e-34 0.00515488 -0.00162948 -0.00220253 -0.00696776 
-0.926495 0.0347926 0.00382514 -0.00120914 -0.0022145 -0.00700562 
-1 4.66422e-34 0.00522093 -0.00165036 -0.00218017 -0.006897 
-0.692693 0.0376358 0.00463503 -0.00146515 -0.00221739 -0.00701477 
-0.729456 1.75602e-33 0.00138962 0.00439608 -0.00221962 -0.00702182 
-0.722089 0.037506 0.00144646 0.00457591 -0.00221944 -0.00702125 
-0.762613 1.61382e-33 0.00567548 -0.00179404 -0.0022212 -0.00702682 
-0.79577 1.49031e-33 0.00170384 0.00539015 -0.00222221 -0.00703001 
-0.828927 1.3088e-33 0.00176891 0.00559597 -0.00222191 -0.00702906 
0.576349 0.161926 0.00427535 -0.00135145 -0.00220515 -0.00697603 
0.62342 0.14582 0.00169229 -0.000534938 -0.00221085 -0.00699408 
0.604417 0.169559 0.00208437 -0.000658878 -0.00220829 -0.00698596 
0.479973 0.106847 0.00264228 -0.000835233 -0.00219663 -0.00694908 
0.45418 0.0878656 0.00118759 -0.000375401 -0.00219476 -0.00694318 
0.420256 0.0889188 0.000356287 0.00112712 -0.00219164 -0.00693329 
0.384929 0.105044 -0.000149292 -0.000472289 -0.00218807 -0.00692199 
0.48403 0.139351 0.0022069 -0.000697609 -0.0021959 -0.00694678 
0.516363 0.163206 0.000662472 0.00209574 -0.00219835 -0.00695452 
0.551154 0.175286 -0.000292713 -0.000926003 -0.00220179 -0.00696541 
0.349168 0.120518 0.0010866 -0.000343478 -0.00218455 -0.00691088 
0.279325 0.13222 0.00158582 -0.000501284 -0.00217893 -0.00689308 
0.310847 0.153663 0.000156088 -4.93401e-05 -0.00217982 -0.00689591 
1.01453 0.303763 0.000539127 -0.00017042 -0.00230802 -0.00730148 
0.905431 0.185795 0.000206283 -6.52069e-05 -0.00224674 -0.0071076 
0.943879 0.227922 5.95231e-05 0.000188302 -0.00226382 -0.00716165 
0.981059 0.267817 -5.39128e-05 -0.000170554 -0.00228561 -0.00723057 
0.826877 0.176251 -0.000260868 8.24612e-05 -0.00223532 -0.00707149 
0.860672 0.219168 -0.000284681 8.99885e-05 -0.00224623 -0.00710598 
0.716077 0.171033 0.000609846 -0.000192775 -0.00222181 -0.00702874 
0.752645 0.169467 0.00436323 -0.00137923 -0.00222626 -0.00704281 
0.788306 0.177425 0.00599603 -0.00189536 -0.00223107 -0.00705804 
0.656724 0.185496 0.00180289 0.00570348 -0.00221453 -0.00700572 
0.680934 0.164308 -0.000795932 -0.00251795 -0.00221753 -0.00701519 
0.713118 0.204201 0.00550492 -0.00174012 -0.00222226 -0.00703016 
1.06315 0.303655 0.00538456 -0.00170208 -0.00233076 -0.00737342 
1.11737 0.300176 0.00626432 -0.00198017 -0.00235965 -0.00746479 
1.18218 0.30208 0.00622225 -0.00196688 -0.00240525 -0.00760906 
0.97913 0.352776 0.00575977 -0.00182068 -0.002303 -0.0072856 
1.00993 0.337933 0.00652042 -0.00206113 -0.00231419 -0.007321 
1.05309 0.341266 0.00195813 0.00619457 -0.00233618 -0.00739054 
-0.377633 0.0261659 -0.000629375 -0.00199104 -0.00218971 -0.00692719 
-0.344319 0.0265122 0.00409956 -0.00129588 -0.00218718 -0.00691919 
-0.423869 0.0358002 0.00479068 -0.00151435 -0.00219342 -0.00693893 
-0.292666 0.0340635 0.00143905 0.00455245 -0.00218354 -0.00690767 
-0.323584 0.0513328 -0.000145149 -0.000459181 -0.00218534 -0.00691337 
-0.624777 0.0363109 0.00492559 -0.001557 -0.00221177 -0.00699699 
-0.655572 0.0657163 0.00448593 -0.00141802 -0.00221458 -0.00700588 
-0.586156 0.0731687 0.00600592 -0.00189849 -0.00220807 -0.00698528 
-0.554708 0.0545036 0.00548461 -0.00173371 -0.0022052 -0.0069762 
-0.457754 0.0533812 0.00593314 -0.00187549 -0.00219617 -0.00694763 
-0.490479 0.0345938 0.00178411 0.00564408 -0.00219938 -0.00695777 
-0.521068 0.0522328 1.73528e-05 5.48959e-05 -0.00220204 -0.00696621 
0.242125 0.166462 0.00555296 -0.00175531 -0.00217443 -0.00687885 
0.142724 0.121967 0.00730233 -0.00230829 -0.0021727 -0.00687337 
0.210717 0.153798 0.0115734 -0.0036584 -0.0021736 -0.00687622 
0.17668 0.137903 0.0116852 -0.00369372 -0.0021731 -0.00687464 
-0.193455 0.0342376 0.00351383 0.0111161 -0.0021781 -0.00689047 
-0.223967 0.0513178 0.0036343 0.0114972 -0.00217925 -0.00689411 
-0.160152 0.0333381 0.0117697 -0.00372046 -0.0021768 -0.00688635 
0.0503502 0.0851498 0.0110408 -0.00349002 -0.00217234 -0.00687223 
0.0150934 0.0766452 0.0111105 -0.00351208 -0.00217247 -0.00687266 
0.0691037 0.113 0.00792715 -0.0025058 -0.00217132 -0.00686901 
-0.0402197 0.059119 0.00774201 -0.00244728 -0.00217333 -0.00687538 
-0.0188639 0.074515 0.00232913 0.00736825 -0.00217275 -0.00687354 
-0.120683 0.0680621 0.00034394 0.00108806 -0.00217467 -0.0068796 
-0.0867556 0.0702228 0.00834243 -0.00263707 -0.00217377 -0.00687675 
0.106269 0.134357 0.00733402 -0.00231831 -0.00217086 -0.00686755 
-0.257367 0.0527228 0.0109636 -0.00346563 -0.00218105 -0.00689979 
-0.86074 0.0437195 0.010541 -0.00333206 -0.00222233 -0.00703038 
-0.900959 0.0581779 0.00895893 -0.00283195 -0.00222078 -0.00702549 
-0.982924 0.0444339 0.00269289 0.008519 -0.00220117 -0.00696346 
-0.958519 0.0801605 -0.000373069 -0.00118021 -0.00221818 -0.00701726 
-1.02592 0.0491833 0.0102798 -0.00324949 -0.00218685 -0.00691814 
-0.689213 0.0740073 0.0100583 -0.00317946 -0.00221748 -0.00701504 
-0.724953 0.0721899 0.00961672 -0.00303988 -0.00222029 -0.00702392 
-0.756267 0.0363689 0.00852383 -0.00269441 -0.0022213 -0.00702713 
-0.791245 0.0348546 0.0107691 -0.00340414 -0.00222259 -0.0070312 
-0.82468 0.0534654 0.00324054 0.0102515 -0.00222374 -0.00703486 
-1.05648 0.103091 0.00334925 0.0105954 -0.00221797 -0.00701659 
0.585364 0.193377 0.00938156 -0.00296554 -0.00220528 -0.00697644 
0.620408 0.199579 0.0103055 -0.0032576 -0.00220957 -0.00699002 
0.44964 0.14077 0.00309763 0.00979943 -0.00219246 -0.0069359 
0.417252 0.122944 0.0032052 0.0101397 -0.0021902 -0.00692875 
0.445832 0.172875 0.0104691 -0.00330931 -0.0021904 -0.00692938 
0.381322 0.138047 0.0114539 -0.00362063 -0.00218633 -0.00691649 
0.480319 0.177705 0.00344168 0.0108878 -0.00219374 -0.00693995 
0.514056 0.196117 0.00356227 0.0112693 -0.00219652 -0.00694873 
0.548774 0.207113 0.0109251 -0.00345347 -0.00220013 -0.00696016 
0.343267 0.165775 0.0111504 -0.00352469 -0.00218154 -0.00690134 
0.305102 0.191652 0.00335107 0.0106012 -0.00217665 -0.00688586 
0.273583 0.179082 0.00346776 0.0109703 -0.00217545 -0.00688209 
0.958506 0.319146 0.0103776 -0.00328039 -0.0022896 -0.00724319 
0.902145 0.22724 0.011306 -0.00357388 -0.00225543 -0.00713511 
0.935884 0.261315 0.010526 -0.00332732 -0.00227037 -0.00718237 
0.932465 0.299231 0.0119622 -0.0037813 -0.00227708 -0.00720358 
0.823951 0.209216 0.0111916 -0.00353772 -0.00223881 -0.00708252 
0.857439 0.250812 0.0113356 -0.00358324 -0.00224994 -0.00711775 
0.749893 0.202497 0.0118988 -0.00376126 -0.00222746 -0.00704663 
0.785059 0.221665 0.0119431 -0.00377525 -0.00223384 -0.0070668 
0.676201 0.21755 0.00359086 0.0113598 -0.00221703 -0.00701361 
0.710423 0.236248 0.00371596 0.0117555 -0.00222229 -0.00703027 
1.21279 0.346493 0.0113111 -0.00357547 -0.00244892 -0.00774722 
1.09771 0.350745 0.0118467 -0.00374478 -0.00236446 -0.00748001 
1.15065 0.346521 0.00356163 0.0112673 -0.00239891 -0.00758901 
0.949013 0.367294 0.00368508 0.0116578 -0.00229222 -0.00725149 
0.999668 0.385154 0.0112617 -0.00355986 -0.00231655 -0.00732847 
1.04333 0.377731 0.00690986 -0.00218423 -0.0023382 -0.00739693 
-0.390584 0.0522955 0.00634647 -0.00200614 -0.00219039 -0.00692935 
-0.357114 0.0529919 0.00609856 -0.00192778 -0.00218774 -0.00692097 
-0.421985 0.0699168 0.00646834 -0.00204467 -0.00219267 -0.00693657 
-0.352677 0.0870694 0.00571617 -0.0018069 -0.00218651 -0.00691705 
-0.285228 0.0853547 0.00562572 -0.00177831 -0.00218182 -0.00690222 
-0.318877 0.0845337 0.00686708 -0.00217071 -0.00218409 -0.0069094 
-0.618041 0.0919628 0.00206266 0.00652526 -0.00221106 -0.00699475 
-0.65237 0.0962726 2.6839e-05 8.49059e-05 -0.00221444 -0.00700543 
-0.685928 0.109225 0.00607012 -0.00191879 -0.00221778 -0.00701599 
-0.581905 0.108094 0.00182491 0.00577314 -0.00220725 -0.00698268 
-0.555454 0.108335 -7.28336e-05 -0.000230411 -0.00220455 -0.00697414 
-0.522311 0.0898291 0.00638713 -0.00201899 -0.00220157 -0.00696473 
-0.44877 0.0887617 -0.00531151 0.00167899 -0.00219458 -0.00694261 
-0.488168 0.0910152 -0.00159784 -0.0050548 -0.00219825 -0.00695421 
0.255112 0.204452 -0.00162779 -0.00514954 -0.00217206 -0.00687134 
0.222833 0.195926 -0.00513955 0.00162463 -0.00217091 -0.00686772 
0.13437 0.158926 -0.00500465 0.00158199 -0.00217 -0.00686484 
0.190588 0.18736 -0.00524909 0.00165926 -0.00217001 -0.00686488 
0.162451 0.173158 -0.00495852 0.00156741 -0.00216992 -0.00686459 
0.10685 0.168684 -0.00149261 -0.0047219 -0.00216846 -0.00685998 
-0.187682 0.0672063 0.000598175 0.00189234 -0.0021771 -0.0068873 
-0.218205 0.0839415 -0.00478684 0.00151314 -0.00217798 -0.00689008 
-0.151037 0.0850353 -0.00497778 0.00157349 -0.00217506 -0.00688084 
0.00974947 0.105526 -0.00483992 0.00152992 -0.0021712 -0.00686862 
0.0550961 0.139044 -0.00176543 0.000558059 -0.00216956 -0.00686344 
0.0350523 0.107843 -0.00104417 0.000330067 -0.00217124 -0.00686875 
-0.0503503 0.08515 -0.00135269 0.00042759 -0.00217259 -0.00687305 
-0.0230272 0.109784 -0.00168099 0.000531368 -0.00217121 -0.00686865 
-0.104018 0.0997946 -0.00101453 0.000320697 -0.00217297 -0.00687423 
-0.0797137 0.109761 -0.00139414 0.000440692 -0.00217197 -0.00687108 
0.0754893 0.170633 -0.000420745 -0.00133104 -0.00216759 -0.00685722 
-0.249383 0.100961 -9.28255e-06 -2.93656e-05 -0.00217899 -0.00689329 
-0.860181 0.0730097 -0.000677189 0.000214062 -0.0022251 -0.00703914 
-0.893304 0.105054 -0.000205643 -0.000650556 -0.00222898 -0.00705142 
-0.936144 0.104711 -2.39448e-05 -7.57499e-05 -0.00222733 -0.0070462 
-0.986693 0.104218 -0.000649025 0.000205159 -0.00222446 -0.00703713 
-0.720972 0.114978 -0.000970516 0.000306783 -0.00222121 -0.00702684 
-0.759756 0.0913687 -0.00366757 0.00115933 -0.00222326 -0.00703334 
-0.785392 0.077087 -0.00401711 0.00126982 -0.00222401 -0.0070357 
-0.818767 0.0976491 -0.00120917 -0.00382525 -0.00222701 -0.00704519 
-0.682854 0.14338 0.000459565 0.00145384 -0.00221791 -0.0070164 
-1.02029 0.147208 -0.00442458 0.00139863 -0.00224487 -0.00710169 
-1.08782 0.156241 -0.00450904 0.00142533 -0.00226114 -0.00715315 
0.652442 0.249292 -0.00474592 0.0015002 -0.00221289 -0.00700052 
0.61774 0.231128 -0.00384484 0.00121537 -0.00220827 -0.00698592 
0.582767 0.224689 -0.00411988 0.00130231 -0.00220371 -0.00697147 
0.411316 0.17409 -0.00483319 0.00152779 -0.00218699 -0.00691859 
0.443081 0.204621 -0.00145378 -0.00459907 -0.0021881 -0.0069221 
0.37534 0.182453 -0.00148133 -0.00468622 -0.0021831 -0.00690629 
0.477613 0.209838 -0.00495541 0.00156642 -0.0021915 -0.00693285 
0.511191 0.227736 -0.00502438 0.00158822 -0.00219424 -0.00694153 
0.544832 0.245519 -0.00442606 0.00139909 -0.00219738 -0.00695147 
0.337396 0.20605 -0.00458182 0.00144833 -0.00217802 -0.00689021 
0.299324 0.229695 -0.00488551 0.00154433 -0.00217276 -0.00687357 
0.267958 0.229786 -0.00480515 0.00151893 -0.00217051 -0.00686647 
0.647953 0.299032 -0.0049126 0.00155289 -0.00221003 -0.00699147 
0.924565 0.348241 -0.00147895 -0.00467867 -0.00228086 -0.00721556 
0.879547 0.280302 0.000741488 0.00234571 -0.00225896 -0.00714625 
0.902884 0.314821 -0.00471445 0.00149026 -0.00226969 -0.00718022 
0.818577 0.262196 -0.00468701 0.00148158 -0.00224294 -0.00709558 
0.84702 0.286355 -0.00511918 0.00161819 -0.00225141 -0.00712239 
0.764487 0.243596 -0.00154072 -0.00487409 -0.00223156 -0.0070596 
0.780239 0.273745 -0.00156943 -0.00496492 -0.0022357 -0.0070727 
0.725993 0.265896 -0.0046544 0.00147127 -0.00222505 -0.007039 
0.688034 0.267728 -0.00139988 -0.00442855 -0.0022183 -0.00701765 
0.685556 0.297622 0.000745467 0.0023583 -0.00221695 -0.00701337 
1.24292 0.388933 -0.00350607 0.00110828 -0.00248843 -0.00787221 
1.18379 0.392677 -0.00289628 0.000915523 -0.00243628 -0.00770721 
1.0738 0.397157 -0.000872072 -0.00275882 -0.00235862 -0.00746153 
1.13117 0.395151 9.36974e-05 0.000296414 -0.00239647 -0.00758127 
1.06465 0.431968 -0.00251543 0.000795137 -0.00235585 -0.00745279 
0.907324 0.383313 -0.00213109 0.000673644 -0.00227666 -0.00720226 
0.940767 0.42016 -0.000643722 -0.00203643 -0.00229113 -0.00724804 
0.983728 0.411932 -9.4082e-05 -0.00029763 -0.00231055 -0.00730948 
1.02221 0.423793 -0.00203321 0.000642705 -0.00233119 -0.00737478 
-0.281249 0.118269 -0.00240309 0.000759624 -0.00218011 -0.00689681 
-0.386502 0.0897471 -0.00311723 0.000985369 -0.00218915 -0.00692543 
-0.418854 0.108236 -0.0027713 0.000876016 -0.00219128 -0.00693214 
-0.349168 0.120519 -0.0033144 0.00104769 -0.00218491 -0.006912 
-0.315061 0.121313 -0.000997964 -0.00315708 -0.00218232 -0.00690382 
-0.45128 0.126638 -0.00017008 -0.000538051 -0.00219359 -0.00693946 
-0.614314 0.126654 -0.00298434 0.000943361 -0.00221046 -0.00699284 
-0.647465 0.145479 -0.00315477 0.000997234 -0.00221402 -0.00700408 
-0.587743 0.147327 -0.00480596 0.00151918 -0.00220721 -0.00698254 
-0.543681 0.143403 -0.00472808 0.00149456 -0.00220243 -0.00696742 
-0.511643 0.125088 -0.00466911 0.00147592 -0.00219961 -0.00695852 
-0.485614 0.125627 -0.00498278 0.00157507 -0.00219695 -0.00695009 
-0.465773 0.152197 -0.00149908 -0.00474236 -0.00219387 -0.00694035 
0.236573 0.229855 0.000300886 0.00095186 -0.00216843 -0.00685987 
0.178901 0.22357 0.00146911 -0.00046439 -0.00216598 -0.00685213 
0.205185 0.22989 0.00099075 -0.00031318 -0.00216664 -0.00685421 
0.125836 0.196514 0.000298718 0.000945002 -0.0021666 -0.00685408 
0.152346 0.210055 2.44864e-05 7.74631e-05 -0.00216629 -0.00685309 
0.0962573 0.202671 0.000934911 -0.000295529 -0.00216518 -0.00684961 
-0.181459 0.101981 0.0013553 -0.000428415 -0.00217552 -0.00688229 
-0.213032 0.119487 0.00307187 -0.000971029 -0.00217612 -0.00688419 
-0.144909 0.121962 0.000921825 0.00291621 -0.00217307 -0.00687455 
0.00438666 0.134418 -0.000370893 -0.00117333 -0.00216959 -0.00686353 
0.0319005 0.159047 0.00368688 -0.00116543 -0.00216797 -0.00685841 
-0.0274801 0.136578 0.00330543 -0.00104486 -0.00216968 -0.00686384 
-0.118101 0.131401 0.00350511 -0.00110798 -0.00217168 -0.00687016 
-0.0570973 0.125323 0.00288702 -0.000912597 -0.00217075 -0.0068672 
-0.0912502 0.140839 0.00393431 -0.00124365 -0.00217039 -0.00686609 
0.0615961 0.202741 0.00117959 0.00373166 -0.00216449 -0.00684741 
-0.245167 0.133165 -0.000570054 -0.00180338 -0.0021771 -0.00688731 
-0.931327 0.138802 0.00250647 -0.000792305 -0.00223729 -0.00707773 
-0.889131 0.140263 0.0019662 -0.000621524 -0.00223581 -0.00707303 
-0.85333 0.118709 0.000591074 0.00186987 -0.00223068 -0.00705679 
-1.01274 0.184099 0.000110377 0.00034918 -0.00226246 -0.00715735 
-0.970425 0.152509 0.0023419 -0.000740284 -0.0022441 -0.00709925 
-0.71796 0.149791 0.00183306 -0.000579437 -0.00222192 -0.00702909 
-0.757124 0.125876 0.00308284 -0.000974496 -0.00222477 -0.00703811 
-0.793197 0.13337 -0.000782351 0.000247304 -0.0022284 -0.00704959 
-0.679119 0.185077 0.00128841 -0.000407271 -0.00221785 -0.0070162 
-0.715179 0.18338 0.000880992 -0.000278485 -0.0022225 -0.00703093 
-1.06618 0.195217 0.000264807 0.000837722 -0.00228182 -0.0072186 
-1.11958 0.207009 6.36891e-07 2.01481e-06 -0.00231032 -0.00730875 
0.614986 0.261743 0.000664803 -0.000210147 -0.00220652 -0.00698036 
0.579754 0.254959 0.000497359 -0.000157217 -0.00220164 -0.00696495 
0.612533 0.291726 0.000291239 -9.20617e-05 -0.00220432 -0.00697341 
0.407689 0.205642 -8.8695e-05 2.80368e-05 -0.00218438 -0.00691033 
0.364499 0.242444 0.00106065 -0.000335274 -0.00217699 -0.00688696 
0.439846 0.235338 -0.000433045 0.000136887 -0.00218535 -0.00691339 
0.371608 0.213678 -0.000621756 0.000196539 -0.00218029 -0.00689739 
0.474376 0.240836 -0.000189049 -0.00059806 -0.00218886 -0.0069245 
0.507823 0.258279 2.34403e-06 7.4154e-06 -0.00219155 -0.006933 
0.541329 0.275609 -0.000273917 8.65863e-05 -0.00219466 -0.00694285 
0.328311 0.250504 0.000109926 -3.4748e-05 -0.00217294 -0.00687415 
0.285793 0.268709 3.15495e-05 9.98075e-05 -0.0021674 -0.00685662 
0.244072 0.268752 1.14568e-05 3.62438e-05 -0.00216443 -0.00684722 
0.682196 0.335829 0.00344975 -0.00109048 -0.00221437 -0.00700522 
0.644931 0.328193 0.00103641 0.00327872 -0.00220747 -0.00698339 
0.873215 0.330488 0.000129209 0.000408755 -0.00226223 -0.00715661 
0.815231 0.292206 0.00307408 -0.000971726 -0.00224424 -0.00709971 
0.832335 0.331708 0.00350492 -0.00110792 -0.00225043 -0.00711927 
0.759597 0.294408 0.0038229 -0.00120843 -0.00223188 -0.00706061 
0.721241 0.305625 0.00504091 -0.00159345 -0.00222384 -0.00703517 
0.866437 0.385751 0.00151437 0.00479073 -0.00226213 -0.00715628 
1.2153 0.432453 0.000272963 0.000863525 -0.00246866 -0.00780965 
1.27239 0.429653 0.00419402 -0.00132575 -0.00252349 -0.00798312 
1.16352 0.434126 0.00126162 0.00399115 -0.00242539 -0.00767278 
1.13157 0.446982 -4.7509e-05 -0.000150296 -0.00240186 -0.00759834 
1.10052 0.459331 0.00386463 -0.00122162 -0.00238022 -0.00752988 
1.05572 0.466089 0.00456667 -0.00144354 -0.0023508 -0.0074368 
0.8994 0.422202 0.00461623 -0.00145921 -0.00227368 -0.00719284 
0.936873 0.452163 0.00416256 -0.0013158 -0.00228841 -0.00723942 
0.979496 0.443384 0.00511918 -0.00161819 -0.00230901 -0.00730459 
1.01251 0.479098 0.00518801 -0.00163995 -0.00232512 -0.00735556 
-0.276979 0.150114 0.00156017 0.00493564 -0.00217804 -0.00689029 
-0.381319 0.138048 -3.47822e-05 -0.000110034 -0.0021867 -0.00691768 
-0.415312 0.141834 0.00528947 -0.00167202 -0.00218953 -0.00692664 
-0.345196 0.152717 0.00489699 -0.00154796 -0.00218285 -0.00690549 
-0.308857 0.167009 0.00464412 -0.00146802 -0.00217915 -0.00689379 
-0.445831 0.172878 0.00694044 -0.0021939 -0.00219081 -0.00693068 
-0.621352 0.178993 0.00208698 0.00660221 -0.00221057 -0.00699319 
-0.586057 0.180969 -8.09753e-05 -0.000256167 -0.00220616 -0.00697923 
-0.648751 0.198325 0.0075125 -0.00237473 -0.00221381 -0.00700344 
-0.551185 0.175293 0.00711891 -0.00225031 -0.00220224 -0.00696684 
-0.51703 0.157093 0.00653544 -0.00206587 -0.00219907 -0.00695681 
-0.480322 0.177704 0.0106293 -0.00335996 -0.00219415 -0.00694124 
0.202349 0.268729 0.00988222 -0.0031238 -0.00216192 -0.00683927 
0.166996 0.260316 0.0104881 -0.00331532 -0.00216125 -0.00683716 
0.137693 0.266695 0.0100262 -0.00316932 -0.00215928 -0.00683093 
0.117128 0.234705 0.0104126 -0.00329147 -0.00216241 -0.00684082 
0.0823866 0.234807 0.00313107 0.00990521 -0.00216149 -0.00683792 
-0.173404 0.140266 -0.00109834 -0.00347462 -0.00217307 -0.00687456 
-0.208004 0.156907 0.00995431 -0.00314659 -0.00217355 -0.00687608 
0.0224284 0.196961 0.0105548 -0.00333642 -0.00216466 -0.00684795 
-0.138759 0.158913 0.00317366 0.0100399 -0.00217047 -0.00686633 
-0.015837 0.167891 -0.000982595 -0.00310846 -0.00216732 -0.00685636 
-0.0477879 0.170035 0.0100706 -0.00318336 -0.00216749 -0.0068569 
-0.11182 0.168671 0.00950962 -0.00300602 -0.00216886 -0.00686125 
-0.0797388 0.172156 0.00893309 -0.00282378 -0.00216781 -0.00685792 
0.0476446 0.234874 0.00810291 -0.00256136 -0.00216091 -0.00683609 
-0.238049 0.172284 0.00243515 0.00770365 -0.00217406 -0.0068777 
-0.829896 0.164571 0.00018408 0.00058234 -0.00223498 -0.0070704 
-0.911156 0.172253 0.00980548 -0.00309955 -0.00224487 -0.00710168 
-0.867478 0.174581 0.0029473 0.00932383 -0.0022404 -0.00708756 
-0.994666 0.214796 -0.00113222 -0.0035818 -0.00227205 -0.00718769 