VARIABLES= "x" , "y" , "phir","phii","pr","pi" 
ZONE F=FEPOINT,ET=TRIANGLE,N=1493,E=2817
0 3 -2.84217e-14 14.0548 59.1714 8.84626e-13 
0 2.90037 59.1714 8.84626e-13 59.2243 7.6561e-13 
0.100182 2.99833 -2.39225e-13 -4.71574e-14 59.0802 5.64881e-13 
0.200316 2.9933 -2.30926e-13 14.06 58.9755 5.32907e-13 
0.300227 2.98494 -1.6831e-13 14.0524 58.7677 4.88498e-13 
0.0750567 2.84683 -1.94067e-13 13.9927 59.3117 9.91207e-13 
0 2.8008 -4.57412e-14 14.0118 59.5121 8.11795e-13 
0.150113 2.89287 -9.63674e-14 14.0288 59.1328 8.61533e-13 
0.22517 2.91401 -2.26041e-13 14.0325 58.9719 5.8975e-13 
0.319842 2.89893 -1.36335e-13 14.0151 58.7515 3.8014e-13 
0.399802 2.97324 58.9755 5.32907e-13 58.4762 7.92255e-13 
0.159921 2.81004 2.39225e-13 4.71574e-14 59.3335 9.57456e-13 
0.0799604 2.75563 -5.32907e-14 14.045 59.6663 8.01137e-13 
0 2.70123 59.0802 5.64881e-13 60 6.89226e-13 
0.239881 2.82461 0 0 59.117 7.10543e-13 
0.415776 2.89879 -2.5846e-13 14.0573 58.4273 1.08002e-12 
0.356379 2.8279 -6.61693e-14 14.0442 58.7544 7.22977e-13 
0.498931 2.95822 -2.17604e-13 14.0587 58.1017 6.75016e-13 
0.16631 2.72052 -3.01537e-13 14.0867 59.7135 1.29674e-12 
0.0799604 2.67598 -1.06581e-13 14.1022 60.1206 1.31628e-12 
0 2.60166 -2.70006e-13 14.0755 60.7429 1.19016e-12 
0.285103 2.76274 59.2243 7.6561e-13 59.208 7.83373e-13 
0.448127 2.80555 2.39225e-13 4.71574e-14 58.4257 1.03384e-12 
0.512145 2.87735 -1.86517e-14 13.9654 58.0367 1.42464e-12 
0.373439 2.73838 58.7677 4.88498e-13 58.9654 9.45022e-13 
0.597503 2.9399 2.39225e-13 4.71574e-14 57.644 1.09068e-12 
0.695407 2.91829 -2.35367e-14 13.9602 57.1071 1.46727e-12 
0.256073 2.68972 -2.09166e-13 13.9331 59.6496 9.45022e-13 
0.170715 2.62718 -5.50671e-14 13.9876 60.3138 9.7522e-13 
0.0853575 2.56464 -2.00728e-13 14.014 61.0287 1.22569e-12 
0 2.5021 58.9719 5.8975e-13 61.7922 8.43769e-13 
0.540872 2.80368 -5.25607e-13 1.4491e-13 57.966 1.16707e-12 
0.463605 2.71318 4.17444e-14 13.9903 58.617 1.3074e-12 
0.618139 2.86098 -2.5091e-13 14.0346 57.4988 1.55786e-12 
0.30907 2.63176 -2.22045e-15 14.0272 59.8162 1.16884e-12 
0.386337 2.64481 -3.04201e-13 14.0754 59.3767 1.1795e-12 
0.713281 2.83438 -1.13687e-13 14.0725 56.9266 1.26654e-12 
0.792534 2.89342 -2.04281e-13 14.0529 56.4865 1.19904e-12 
0.888777 2.86532 59.1328 8.61533e-13 55.7861 1.91669e-12 
0.984026 2.83402 -2.39225e-13 -4.71574e-14 55.0118 1.90603e-12 
0.231802 2.57445 -1.11466e-13 14.0515 60.5805 9.64562e-13 
0.154535 2.51714 -6.92779e-14 14.1327 61.3978 9.21929e-13 
0.0772674 2.45984 -1.01252e-13 14.1006 62.2658 8.65086e-13 
0 2.40253 -2.27374e-13 14.0977 63.175 8.79297e-13 
0.554774 2.68641 59.3117 9.91207e-13 58.1805 1.45128e-12 
0.634027 2.75542 -2.39225e-13 -4.71574e-14 57.4913 1.3749e-12 
0.484787 2.56445 -2.10054e-13 14.1197 59.3172 9.41469e-13 
0.313042 2.55558 -1.34559e-13 14.1607 60.4198 8.3844e-13 
0.396267 2.54841 1.59872e-14 14.141 60.0415 7.49623e-13 
0.807979 2.80515 59.5121 8.11795e-13 56.2762 1.37845e-12 
0.72565 2.75537 -1.76889e-12 1.48348e-13 56.8738 1.05338e-12 
0.902024 2.77317 -1.12799e-13 14.1928 55.5374 1.36779e-12 
0.99524 2.74604 -2.02061e-13 13.8879 54.7266 1.81899e-12 
1.07818 2.79956 -1.7053e-13 13.926 54.1616 1.36069e-12 
1.17112 2.76197 -2.54463e-13 13.8538 53.2343 1.49925e-12 
1.26276 2.72129 -6.75016e-14 13.8959 52.2387 1.22036e-12 
1.35299 2.67758 58.4762 7.92255e-13 51.1698 1.66089e-12 
0.234781 2.49242 -5.25607e-13 1.4491e-13 61.4302 1.13687e-12 
0.158507 2.42105 -1.64757e-13 13.9254 62.6427 1.43885e-12 
0.0792534 2.36201 9.76996e-15 13.96 63.776 9.18376e-13 
0 2.30296 -1.79856e-13 13.9615 64.9738 1.22213e-12 
0.656018 2.62381 58.7515 3.8014e-13 57.7004 9.91207e-13 
0.574015 2.57126 4.78449e-13 9.43147e-14 58.6268 8.40217e-13 
0.73802 2.67637 -1.14131e-13 14.0025 56.8906 9.20153e-13 
0.410011 2.46616 -2.20268e-13 13.7963 60.7238 1.23812e-12 
0.580557 2.47845 -1.7808e-13 13.844 59.2425 1.19726e-12 
0.492013 2.46892 -2.85105e-13 13.7548 60.0867 9.85878e-13 
0.317014 2.4794 -1.4122e-13 13.8067 61.1705 5.98632e-13 
0.820022 2.72892 58.1017 6.75016e-13 56.1693 1.42464e-12 
0.912304 2.69252 -2.39225e-13 -4.71574e-14 55.3933 1.63425e-12 
1.08747 2.70073 -1.79412e-13 14.0092 53.8089 1.32694e-12 
1.00382 2.6395 -8.92619e-14 14.0489 54.5228 1.66089e-12 
1.17858 2.66685 59.117 7.10543e-13 52.8479 1.53477e-12 
1.26843 2.62927 1.96095e-12 1.38034e-13 51.8158 1.30385e-12 
1.3569 2.57644 -2.75779e-13 14.1 50.667 1.43885e-12 
1.44171 2.63087 59.3335 9.57456e-13 50.0381 1.07647e-12 
0.23776 2.4104 -5.25607e-13 1.4491e-13 62.4604 1.247e-12 
0.158507 2.3414 -2.16271e-13 14.0577 63.9105 9.98313e-13 
0.0820022 2.25595 -1.98064e-13 14.1129 65.8628 1.08535e-12 
0 2.20339 -1.8785e-13 14.0761 67.2491 9.07718e-13 
0.74643 2.55485 -9.23706e-14 14.1401 57.1942 1.35181e-12 
0.663494 2.49367 -1.18572e-13 14.1389 58.3375 1.1724e-12 
0.829367 2.61603 -9.19265e-14 14.2184 56.2135 1.05516e-12 
0.414683 2.37142 -7.4607e-14 14.1868 61.8881 6.07514e-13 
0.328009 2.34722 -2.80664e-13 14.2283 62.9092 9.80549e-13 
0.49762 2.37132 -1.02141e-13 14.1785 61.1312 9.3614e-13 
0.627015 2.40933 59.6663 8.01137e-13 59.4066 7.22977e-13 
0.920168 2.57827 4.20829e-12 8.40014e-14 55.3888 1.16884e-12 
1.09439 2.61241 -1.05693e-13 14.275 53.5804 1.29141e-12 
1.01021 2.55797 -3.04645e-13 14.3392 54.457 1.39266e-12 
1.18387 2.58097 -1.55875e-13 14.2585 52.5694 1.04805e-12 
1.27209 2.53372 60 6.89226e-13 51.4581 1.32694e-12 
1.35895 2.48393 1.96095e-12 1.38034e-13 50.2704 9.91207e-13 
1.47627 2.49609 -3.9968e-14 13.9202 48.9357 1.00009e-12 
1.52881 2.58123 -2.61569e-13 13.8846 48.8427 9.39693e-13 
1.61421 2.5287 58.4273 1.08002e-12 47.5798 7.30083e-13 
0.926025 2.50353 1.24328e-12 -3.43777e-15 55.4811 1.6307e-12 
0.24881 2.26438 -1.85629e-13 13.8812 64.9689 7.88702e-13 
0.165873 2.21086 -2.12719e-13 13.8405 66.6578 1.09068e-12 
0.0829367 2.15734 -1.803e-13 13.9259 68.3799 1.29319e-12 
0 2.10382 -4.88498e-15 13.9833 70.1079 9.07718e-13 
0.752865 2.4558 -1.07914e-13 14.0128 57.6402 1.43885e-12 
0.836517 2.51703 -8.08242e-14 13.9619 56.4331 1.25411e-12 
0.418258 2.27487 58.7544 7.22977e-13 63.4003 4.83169e-13 
0.331747 2.24897 -4.7339e-12 6.09085e-14 64.6954 5.9508e-13 
0.585562 2.33333 -2.08722e-13 13.499 60.7162 6.0929e-13 
0.50191 2.27209 -2.7045e-13 13.8344 62.5724 4.10338e-13 
0.673473 2.34021 -3.84137e-13 13.5471 59.5415 7.24754e-13 
1.0993 2.51399 -3.85914e-13 13.6365 53.4478 1.29496e-12 
1.01474 2.48436 -3.11307e-13 13.7816 54.4726 1.19016e-12 
1.18729 2.46758 -1.40332e-13 13.7423 52.3402 1.20615e-12 
1.27401 2.43528 -3.70814e-13 13.6148 51.1871 1.45306e-12 
1.42372 2.41095 -2.78444e-13 13.6981 49.1702 8.13571e-13 
1.50925 2.35837 57.644 1.09068e-12 47.8052 1.03562e-12 
1.56173 2.44353 1.48251e-12 4.37196e-14 47.6203 7.21201e-13 
1.69781 2.47335 -2.37588e-13 13.5701 46.2598 5.18696e-13 
0.929447 2.42148 57.1071 1.46727e-12 55.7087 1.10845e-12 
1.85922 2.35442 1.72173e-12 9.0877e-14 43.4721 4.56524e-13 
1.77951 2.41523 -2.7045e-13 13.7912 44.8988 3.49942e-13 
0.24881 2.18779 58.0367 1.42464e-12 66.7173 1.0818e-12 
0.165873 2.12661 -1.24328e-12 3.43777e-15 68.906 1.20615e-12 
0.0829367 2.06543 -4.17444e-13 13.7305 71.2196 1.75682e-12 
0 2.00426 -2.63345e-13 13.6789 73.6408 1.25766e-12 
0.761057 2.33944 -2.23377e-13 14.0686 58.447 1.01252e-12 
0.845619 2.38774 59.208 7.83373e-13 56.95 1.25944e-12 
0.507371 2.19452 -4.97312e-12 1.37511e-14 63.9103 7.17648e-13 
0.422809 2.14622 -2.25153e-13 14.0437 66.0346 9.43245e-13 
0.336736 2.12245 -1.76748e-13 14.1183 67.625 1.10845e-12 
0.591933 2.24283 -1.57208e-13 14.1321 61.9089 3.21521e-13 
0.719753 2.26657 -6.26166e-14 14.1863 59.8019 1.32871e-12 
1.10248 2.41315 -2.30926e-13 14.1908 53.446 1.20082e-12 
1.01768 2.388 59.7135 1.29674e-12 54.647 1.18305e-12 
1.18908 2.38663 -3.01217e-12 1.51785e-13 52.2741 9.34364e-13 
1.28012 2.35622 -2.50466e-13 14.2399 50.952 9.09495e-13 
1.45676 2.2732 -3.01981e-13 14.2564 48.1503 1.01785e-12 
1.37117 2.32581 -2.56684e-13 14.3595 49.5779 7.56728e-13 
1.64115 2.39095 -2.2693e-13 14.2874 46.3219 1.61648e-13 
1.58448 2.30855 60.1206 1.31628e-12 46.5208 5.08038e-13 
1.71876 2.33574 -2.28575e-11 -3.24348e-14 44.9827 6.83897e-13 
0.932869 2.33943 -2.68674e-13 14.3134 56.0273 1.05516e-12 
1.79853 2.27489 -2.94875e-13 14.3861 43.4999 3.21521e-13 
1.93686 2.29098 -1.7053e-13 14.4732 42.0038 3.82805e-13 
2.01233 2.22498 -2.77556e-13 14.4361 40.5033 7.82485e-13 
2.08555 2.15649 60.7429 1.19016e-12 38.9594 5.21361e-13 
1.52782 2.22616 2.45792e-11 1.23312e-13 46.8745 6.37712e-13 
0.253686 2.04961 -2.30926e-13 14.5505 70.6677 7.67386e-13 
0.169124 2.0013 -1.20348e-13 14.0957 73.1338 1.30917e-12 
0.0845619 1.95299 -2.67342e-13 14.1062 75.5936 1.65556e-12 
0 1.90469 -9.05942e-14 13.9459 78.0291 9.96536e-13 
0.848063 2.24986 -1.2923e-13 13.8846 57.9765 9.02389e-13 
0.508838 2.09656 58.4257 1.03384e-12 66.0496 9.02389e-13 
0.593644 2.14514 -7.64831e-13 9.77525e-14 63.6261 1.01252e-12 
0.424031 2.04799 -1.70974e-13 13.8323 68.6732 9.11271e-13 
0.339225 1.99942 -3.11307e-13 14.0132 71.464 1.06226e-12 
0.67845 2.19371 58.9654 9.45022e-13 61.4202 6.05738e-13 
0.763256 2.19543 3.03172e-11 1.18082e-14 60.0031 1.01963e-12 
1.10414 2.33798 -7.68274e-14 14.057 53.5163 7.6561e-13 
1.01921 2.28934 -1.24345e-13 13.9047 54.9725 1.42997e-12 
1.25869 2.26604 -1.26121e-13 13.9765 51.1884 1.17062e-12 
1.16534 2.27275 -1.70974e-13 13.8483 52.6837 1.22569e-12 
1.33596 2.23006 -3.12639e-13 13.3957 49.901 1.15641e-12 
1.40428 2.18804 -3.21965e-13 13.3426 48.6753 1.09424e-12 
1.65801 2.25625 -3.01537e-13 13.4231 45.2008 7.88702e-13 
1.59726 2.17676 56.4865 1.19904e-12 45.5586 7.86926e-13 
1.73784 2.19536 0 0 43.6499 7.79821e-13 
0.934275 2.24069 -2.23821e-13 13.4732 56.6541 1.05338e-12 
1.87228 2.21462 -4.74287e-13 13.1675 42.0558 7.01661e-14 
1.94398 2.15192 -3.07754e-13 13.2249 40.579 4.92051e-13 
2.01355 2.08686 -2.56684e-13 13.3121 39.058 6.4837e-13 
2.08461 2.01604 -3.59712e-13 13.2574 37.4247 8.49987e-13 
2.15645 2.0856 55.7861 1.91669e-12 37.3873 5.17808e-13 
1.47116 2.14376 -7.64831e-13 9.77525e-14 47.4105 7.12319e-13 
2.41519 1.77956 -3.23297e-13 13.4534 30.8778 1.86517e-13 
2.22494 2.01238 -1.78968e-13 13.5988 35.7803 3.08198e-13 
2.29094 1.93691 -3.66818e-13 13.5286 34.1489 3.90799e-13 
0.9178 2.15899 56.9266 1.26654e-12 57.6497 1.26477e-12 
0.759005 2.11711 -1.48251e-12 -4.37196e-14 61.2184 1.25233e-12 
2.35438 1.85927 -2.53575e-13 13.5909 32.5216 3.23297e-13 
1.80771 2.13827 -9.14824e-14 13.519 42.2203 3.05533e-13 
0.254419 1.95084 -1.7053e-13 13.7755 74.4075 8.43769e-13 
0.169613 1.90227 57.966 1.16707e-12 77.4088 1.12088e-12 
0.0848063 1.85369 1.06639e-11 1.1397e-13 80.4356 1.01963e-12 
0 1.80512 -3.13971e-13 13.6588 83.4337 8.15348e-13 
0.832291 2.13636 -2.21601e-13 13.7174 59.4973 1.39799e-12 
0.594538 2.04609 -3.56604e-13 13.7222 65.7833 7.58504e-13 
0.509604 1.99744 -3.05533e-13 13.7957 68.7123 7.38964e-13 
0.679473 2.09474 -2.20268e-13 13.6638 63.0932 6.78568e-13 
0.42467 1.9488 57.4988 1.55786e-12 71.9086 1.08358e-12 
0.339225 1.92328 -4.20829e-12 -8.40014e-14 74.3468 1.17772e-12 
1.08398 2.21635 -4.84945e-13 13.1319 54.209 1.1493e-12 
1.00984 2.15554 -4.59632e-13 13.0731 55.8835 9.92983e-13 
1.17707 2.15959 55.0118 1.90603e-12 52.6942 9.25482e-13 
1.28775 2.14227 0 0 50.6675 9.21929e-13 
1.3518 2.10287 -2.40696e-13 13.0371 49.439 9.59233e-13 
1.67715 2.11583 -3.25073e-13 12.9742 43.9349 1.19549e-12 
1.55269 2.08495 -1.58984e-13 14.1761 45.7558 6.83897e-13 
1.87564 2.07887 59.6496 9.45022e-13 40.7609 7.21201e-13 
1.94154 2.01723 2.72579e-12 4.02818e-14 39.2581 8.86402e-13 
2.01276 1.94648 -1.58096e-13 14.1964 37.5529 6.62581e-13 
2.0744 1.88058 -1.60316e-13 14.276 35.9938 5.48006e-13 
2.14967 1.94648 -2.79776e-13 14.254 35.8441 5.92415e-13 
1.41449 2.06136 -1.66533e-13 14.367 48.1663 8.33111e-13 
2.33375 1.72147 -2.54019e-13 14.4531 30.9261 3.87246e-13 
2.47331 1.69786 -1.95843e-13 14.3353 29.2185 1.90958e-13 
2.21571 1.87095 60.3138 9.7522e-13 34.1574 5.54223e-13 
0.901326 2.0773 3.82553e-11 8.54963e-14 58.8518 9.73444e-13 
0.754755 2.03879 -1.33671e-13 14.4193 62.6315 7.53175e-13 
2.27598 1.7972 -1.2168e-13 14.5058 32.5525 9.85878e-14 
1.74314 2.06191 61.0287 1.22569e-12 42.5184 1.05693e-12 
1.80729 2.00581 5.59005e-11 8.45248e-14 41.0713 7.97584e-13 
0.254419 1.86884 -2.05169e-13 14.5504 78.085 1.05516e-12 
0.169613 1.81441 -1.05693e-13 14.5941 81.9692 1.37845e-12 
0.0848063 1.75998 -9.05942e-14 14.6415 85.9783 8.31335e-13 
0 1.70555 -1.58984e-13 14.6837 90.0343 1.10489e-12 
0.851056 2.01689 61.7922 8.43769e-13 60.8592 7.8515e-13 
0.665788 1.96581 -2.2121e-10 1.33474e-13 66.2894 9.89431e-13 
0.574377 1.92446 -1.34115e-13 14.7432 69.5931 1.41753e-12 
0.477309 1.86886 -5.4623e-14 14.8375 73.9289 1.4726e-12 
0.404344 1.8346 -2.25153e-13 14.1664 77.1343 9.80549e-13 
0.33138 1.80033 -1.38556e-13 14.2838 80.3318 1.05693e-12 
1.08541 2.0704 -1.71418e-13 14.3063 54.9093 8.10019e-13 
0.970361 2.01824 -2.11831e-13 14.2177 57.9741 7.53175e-13 
1.21353 2.07039 59.8162 1.16884e-12 52.2265 1.38201e-12 
1.29931 2.01771 4.44717e-11 6.83074e-14 50.4673 1.11378e-12 
1.61646 2.03631 -1.17684e-13 14.2283 44.3745 1.20259e-12 
1.49598 2.00239 -2.46025e-13 14.1828 46.3976 8.82849e-13 
1.86953 1.9476 -1.66533e-13 14.1089 39.581 4.40536e-13 
1.94092 1.87692 -3.74811e-13 13.8851 37.7859 8.11795e-13 
1.99913 1.81468 -7.81597e-14 14.1119 36.229 5.31131e-13 
2.05524 1.75053 59.3767 1.1795e-12 34.6544 6.16396e-13 
2.1338 1.81265 -2.24939e-10 1.43788e-13 34.4157 4.33431e-13 
1.36929 1.96876 -3.18412e-13 14.0191 48.9131 7.67386e-13 
2.39189 1.63971 -3.41505e-13 13.9338 29.2046 2.51354e-13 
2.25231 1.66338 58.617 1.3074e-12 31.0256 5.42677e-13 
2.52866 1.61427 -3.03172e-11 -1.18082e-14 27.5804 -3.23297e-13 
2.19758 1.73512 -1.97176e-13 14.0034 32.6414 5.92415e-13 
0.809018 1.94878 -2.54907e-13 13.9515 63.1475 5.13367e-13 
1.67857 1.98555 -2.74447e-13 13.7762 42.9729 6.91003e-13 
1.73894 1.93275 -1.94511e-13 13.8738 41.5252 9.58345e-13 
1.79752 1.87796 -1.31894e-13 13.7424 40.0316 5.20473e-13 
2.58119 1.52887 -2.93543e-13 13.8301 25.9465 1.77636e-14 
0.610868 1.78024 58.1805 1.45128e-12 73.9741 5.32907e-13 
0.639149 1.85148 -3.3043e-11 -5.209e-14 70.3747 9.13047e-13 
2.31048 1.58155 -2.54019e-13 13.373 29.2267 1.91847e-13 
0.23064 1.76629 56.2762 1.37845e-12 84.0318 8.18901e-13 
0.174995 1.70449 1.00406e-12 -5.05951e-14 88.9261 1.26477e-12 
0.0901888 1.65006 -3.06866e-13 13.2878 93.98 1.21503e-12 
0 1.60599 -3.22409e-13 13.3586 98.1685 8.95284e-13 
0.905319 1.92688 -2.46914e-13 13.4414 60.9299 9.76996e-13 
0.737038 1.88553 -2.45137e-13 13.1036 66.5678 9.27258e-13 
0.529948 1.78893 -3.51719e-13 13.1974 75.974 9.96536e-13 
0.40834 1.73182 55.5374 1.36779e-12 82.4305 8.91731e-13 
0.291668 1.71816 1.00406e-12 -5.05951e-14 86.1054 1.41398e-12 
1.16098 1.98525 -2.72671e-13 13.2708 53.6982 1.31806e-12 
1.02264 1.93904 -3.42837e-13 13.1789 57.541 8.11795e-13 
1.24683 1.93254 -1.64313e-13 13.5143 51.8085 9.5568e-13 
1.55577 1.95678 -4.01901e-13 13.5904 45.0188 8.56204e-13 
1.43928 1.91982 -2.8777e-13 13.5142 47.2768 6.53699e-13 
1.86908 1.80736 56.8738 1.05338e-12 38.1324 5.18696e-13 
1.92387 1.74878 -2.24734e-12 5.40329e-14 36.5745 5.19584e-13 
1.99002 1.67308 -1.19904e-13 13.6805 34.5937 6.79456e-13 
2.11918 1.67305 -5.50671e-14 13.5951 32.7916 1.01874e-12 
1.3147 1.8849 -1.98064e-13 13.6631 50.1583 3.19744e-13 
2.44448 1.56029 57.4913 1.3749e-12 27.5902 2.82441e-13 
2.17087 1.60529 1.2672e-11 1.27796e-14 31.1888 7.92255e-13 
2.49438 1.47916 -2.11831e-13 13.434 25.9809 1.7053e-13 
0.839816 1.85634 -3.51719e-13 12.7631 64.2235 5.29354e-13 
1.6706 1.8597 -2.5091e-13 12.8267 42.1396 9.44134e-13 
1.61399 1.9092 -3.69926e-13 12.935 43.6036 9.04166e-13 
1.74406 1.79097 -2.81553e-13 12.8709 40.1294 5.41789e-13 
2.54155 1.39641 54.1616 1.36069e-12 24.3788 7.90479e-14 
2.63084 1.44176 4.78449e-13 9.43147e-14 24.322 4.52971e-14 
0.582588 1.709 -3.71259e-13 12.9777 78.0651 6.53699e-13 
0.661485 1.69915 -4.10338e-13 12.8991 75.5725 6.82121e-13 
0.703922 1.7785 -3.3662e-13 13.0052 70.8797 7.22977e-13 
2.22906 1.5234 54.7266 1.81899e-12 29.2909 6.57252e-14 
2.3603 1.50632 -7.64831e-13 9.77525e-14 27.631 5.24025e-14 
0 1.30728 -3.05533e-13 13.0816 134.042 6.60805e-13 
0 1.40685 -2.96208e-13 12.7153 119.955 9.41469e-13 
0 1.50642 -3.06866e-13 12.6028 108.049 1.38911e-12 
2.67755 1.35305 -1.96287e-13 12.5346 22.7187 4.63629e-13 
0.980601 1.87093 -3.56604e-13 12.651 59.6569 6.76792e-13 
2.72127 1.26282 53.2343 1.49925e-12 21.1421 3.01981e-14 
2.76194 1.17118 -1.00406e-12 5.05951e-14 19.5984 -7.28306e-14 
1.10843 1.90011 -3.77032e-13 12.414 55.6176 6.53699e-13 
0.238389 1.66484 52.2387 1.22036e-12 90.9115 6.92779e-13 
0.18511 1.61153 -1.24328e-12 3.43777e-15 96.0979 7.99361e-13 
0.0955714 1.54013 -3.16636e-13 12.2893 103.934 1.49569e-12 
0.938563 1.80281 -3.57048e-13 12.362 62.1054 1.03562e-12 
0.803726 1.76228 -3.22409e-13 12.4828 67.8501 9.30811e-13 
0.485301 1.66331 -2.07834e-13 12.2336 84.0891 1.36424e-12 
0.370519 1.65356 -4.36984e-13 12.1605 88.5863 8.7752e-13 
1.19435 1.84738 51.1698 1.66089e-12 53.5381 1.38911e-12 
1.05588 1.81497 6.93408e-12 1.24283e-13 58.015 1.00719e-12 
1.54942 1.83284 -3.606e-13 12.0982 44.4701 1.17062e-12 
1.466 1.83504 -4.13891e-13 12.0277 46.4105 7.92255e-13 
1.38257 1.83725 -1.71863e-13 14.3986 48.4517 4.51195e-13 
1.8486 1.68288 60.5805 9.64562e-13 37.0607 4.92051e-13 
1.79724 1.7378 -1.27724e-10 -7.72012e-14 38.6173 5.66658e-13 
2.04078 1.61097 -9.76996e-14 14.4944 33.0257 7.2653e-13 
1.91479 1.60712 -6.9722e-14 14.4919 34.9289 8.41993e-13 
2.08943 1.5472 -3.18412e-13 14.382 31.4253 4.01457e-13 
1.29352 1.7793 -3.3884e-13 14.5987 50.8574 6.89226e-13 
2.40757 1.42946 -2.66454e-13 14.5935 26.0413 1.4122e-13 
2.45226 1.35106 61.3978 9.21929e-13 24.4552 3.37508e-13 
0.879537 1.72497 -1.5259e-10 -8.44576e-15 65.9608 9.13047e-13 
1.61259 1.77535 -1.67422e-13 14.7301 42.6717 5.91527e-13 
1.67577 1.71786 -3.2907e-13 14.6953 40.8271 2.78888e-13 
2.49928 1.26237 -7.50511e-14 14.9674 22.7121 5.02709e-13 
2.58842 1.30771 -3.28626e-14 14.7996 22.7152 2.9754e-13 
0.562262 1.5948 62.2658 8.65086e-13 85.3678 1.11555e-12 
0.635227 1.62907 -1.98925e-11 5.50044e-14 80.0454 1.06759e-12 
0.740383 1.6893 -1.48326e-13 14.8457 72.7483 8.01137e-13 
2.14765 1.46524 -2.20268e-13 14.9058 29.4053 9.76996e-14 
2.27611 1.45234 -1.803e-13 15.2135 27.7076 3.33067e-13 
2.32076 1.37975 -5.77316e-15 15.0879 26.1204 1.89182e-13 
0 1.20771 -2.10054e-13 15.0134 149.784 1.25411e-12 
0.0724188 1.32846 63.175 8.79297e-13 130.342 9.30811e-13 
0.0965585 1.43509 1.30871e-09 1.55514e-14 115.763 1.39266e-12 
2.62995 1.22199 -1.47882e-13 14.3164 21.1614 3.40172e-13 
2.66859 1.13494 -5.9952e-14 14.4446 19.6384 8.88178e-15 
2.70634 1.04198 -1.75859e-13 14.4754 18.0755 1.15907e-13 
2.79954 1.07824 -2.28706e-13 14.3592 18.0928 -3.15303e-14 
1.12186 1.77337 60.4198 8.3844e-13 56.2544 1.38023e-12 
0.0789345 0.994405 7.90443e-11 -7.51076e-14 176.503 1.81899e-12 
0 1 -1.36335e-13 14.1858 174.579 1.82609e-12 
0 1.10815 -6.52811e-14 14.3993 164.517 1.36424e-12 
0.258904 1.59341 -1.59872e-14 14.2674 96.2125 1.73017e-12 
0.195225 1.51858 60.0415 7.49623e-13 104.751 1.31095e-12 
1.00334 1.72983 8.60404e-10 -1.31603e-13 61.0602 9.21929e-13 
0.833467 1.63253 -1.86962e-13 14.347 70.6339 6.07514e-13 
0.439916 1.5694 -1.94955e-13 14.2579 92.4183 1.112e-12 
0.332699 1.57529 -2.00728e-13 14.1004 95.8053 7.88702e-13 
1.18784 1.73177 59.3172 9.41469e-13 54.3481 6.27054e-13 
1.5339 1.71358 3.28277e-10 9.64837e-14 44.0931 3.73035e-13 
1.4538 1.71589 -1.34115e-13 14.0931 46.2226 6.21725e-13 
1.37369 1.71819 -1.39444e-13 14.1841 48.4678 4.60076e-13 
1.77333 1.61698 -8.65974e-14 14.0185 37.7044 5.51559e-13 
1.96237 1.5489 -1.43885e-13 13.8201 33.3578 1.29941e-12 
2.00798 1.48911 -2.64677e-13 13.9322 31.7474 6.69687e-13 
1.83956 1.54117 58.6268 8.40217e-13 35.413 9.03277e-13 
1.25042 1.68522 -1.0018e-10 1.3355e-13 52.4134 7.70939e-13 
2.36296 1.30571 -2.43361e-13 13.902 24.5318 4.21885e-13 
2.41015 1.21703 -1.72751e-13 13.9996 22.7026 1.02141e-13 
0.950787 1.64469 -2.69562e-13 13.6573 64.8795 1.17062e-12 
1.59373 1.65613 -3.07754e-13 13.7789 42.1571 4.05009e-13 
1.65355 1.59868 -2.74891e-13 13.714 40.1442 3.31291e-13 
2.53863 1.18116 57.7004 9.91207e-13 21.1722 -4.52971e-14 
2.44731 1.14034 -4.42325e-11 -2.115e-14 21.1789 2.15827e-13 
0.639222 1.52629 -2.44249e-13 13.6138 85.8559 1.15463e-12 
0.528223 1.52437 -2.71339e-13 13.0642 92.0307 1.15463e-12 
0.740444 1.57925 -5.28022e-13 13.1592 77.3827 9.52127e-13 
2.19193 1.39837 -2.65565e-13 13.4435 27.8234 2.75335e-14 
2.06623 1.40709 -2.94875e-13 13.349 29.5744 7.62945e-13 
2.23395 1.33005 -1.79856e-13 13.4309 26.2347 2.31815e-13 
0.0730753 1.12685 -2.67342e-13 13.2593 163.114 7.42517e-13 
0.128745 1.24537 -1.94955e-13 13.5487 143.101 7.74492e-13 
0.144838 1.34964 -4.29878e-13 13.2563 126.667 9.9476e-13 
0.219858 1.42333 -2.22045e-13 13.3482 114.994 9.62785e-13 
2.57524 1.09869 56.1693 1.42464e-12 19.6635 -1.27898e-13 
2.61314 1.00573 -2.24734e-12 5.40329e-14 18.0308 -4.9738e-14 
2.73908 0.952539 -3.24629e-13 13.1645 16.637 5.06262e-14 
2.64416 0.920991 55.3933 1.63425e-12 16.6009 1.51434e-13 
2.834 0.984088 -3.72984e-12 1.03133e-14 16.6314 1.7053e-13 
1.08938 1.67705 -1.61648e-13 13.5194 58.4806 1.12976e-12 
0.0993359 1.05441 56.8906 9.20153e-13 173.823 1.45661e-12 
0.141067 0.99 1.48251e-12 4.37196e-14 184.15 1.35003e-12 
1.65798 1.51929 -2.29594e-13 12.6753 39.1387 8.22453e-13 
0.294878 1.49703 -1.90514e-13 12.7584 104.207 8.3844e-13 
1.0369 1.59189 -3.5838e-13 12.8681 61.9462 9.00613e-13 
0.898239 1.55955 -2.9754e-13 12.7875 69.7381 1.04983e-12 
0.819372 1.51438 53.8089 1.32694e-12 75.7977 1.04627e-12 
0.494184 1.45393 2.39225e-13 4.71574e-14 99.8368 1.06581e-12 
0.394531 1.47548 -2.2915e-13 13.0559 102.763 6.96332e-13 
1.17203 1.62032 -2.57572e-13 12.947 55.7232 8.34888e-13 
1.46556 1.64052 -2.62013e-13 12.8476 45.4532 2.94875e-13 
1.38545 1.64283 -3.85469e-13 12.9574 47.9456 -4.61853e-14 
1.313 1.63866 54.5228 1.66089e-12 50.3615 2.78888e-13 
1.74097 1.50203 6.45563e-12 2.99685e-14 36.9439 6.35936e-13 
1.92654 1.43102 -2.22933e-13 13.0548 32.1791 8.85514e-13 
1.84233 1.45705 -4.13891e-13 12.5588 34.133 1.247e-12 
1.25231 1.55913 52.8479 1.53477e-12 52.7061 1.0445e-12 
2.28365 1.24266 3.72984e-12 -1.03133e-14 24.2496 5.38236e-13 
2.32102 1.17169 -1.71863e-13 12.4381 22.7043 -5.32907e-14 
2.35599 1.09951 -2.4114e-13 12.5243 21.1687 -4.52971e-14 
1.58171 1.52912 -3.91687e-13 12.6422 41.2593 3.15303e-13 
1.52363 1.58482 -2.63345e-13 11.891 43.4024 4.03233e-13 
2.48189 1.06244 50.0381 1.07647e-12 19.6756 1.06137e-13 
2.38854 1.0262 4.78449e-13 9.43147e-14 19.6558 -3.28626e-13 
0.593837 1.43238 -2.32259e-13 11.7596 95.5125 7.56728e-13 
0.693491 1.41082 -1.74083e-13 11.7505 90.0258 8.34888e-13 
0.740505 1.46921 -3.26406e-13 11.9614 83.0918 9.76996e-13 
2.14714 1.28035 -2.12719e-13 12.3133 26.3925 3.00204e-13 
2.10775 1.34439 51.8158 1.30385e-12 27.991 6.45706e-13 
1.98482 1.34894 -3.01217e-12 1.51785e-13 29.8232 1.03473e-12 
2.18438 1.21502 -2.30926e-13 12.1789 24.7907 6.01297e-13 
0.193117 1.16462 -2.85105e-13 12.2692 157.115 1.01608e-12 
0.159143 1.05489 -1.91847e-13 12.3998 177.443 1.62004e-12 
0.212381 1.28263 -3.09974e-13 11.8385 135.407 7.95808e-13 
0.268941 1.35513 -4.13891e-13 12.0395 122.454 7.17648e-13 
2.51994 0.96947 50.667 1.43885e-12 17.9515 -1.68754e-14 
2.54924 0.889442 -1.71667e-11 9.52862e-14 16.5202 3.31291e-13 
2.76882 0.862053 -2.2915e-13 12.131 15.2448 1.81632e-13 
2.67233 0.835267 -2.77556e-13 11.9911 15.2173 -5.01821e-14 
2.8653 0.888839 -2.52243e-13 14.5976 15.2208 8.88178e-16 
1.11128 1.54083 61.4302 1.13687e-12 59.1262 5.73763e-13 
0.141068 0.99 8.21337e-10 1.19878e-13 184.273 1.14397e-12 
1.6624 1.4399 -2.22045e-13 14.7377 37.9682 7.59393e-13 
0.265476 1.20179 -2.34923e-13 14.7167 148.506 1.03739e-12 
0.356277 1.3812 -2.57128e-13 14.5726 115.274 6.60805e-13 
1.01785 1.48458 -3.5838e-13 14.8862 64.8957 5.18696e-13 
0.902039 1.43994 62.6427 1.43885e-12 73.3299 9.09495e-13 
0.793144 1.38927 1.86111e-10 1.5485e-13 83.6328 6.92779e-13 
0.511747 1.37473 -1.96287e-13 15.0329 106.958 7.99361e-13 
0.434012 1.37797 -3.23741e-13 15.0205 111.445 7.14095e-13 
1.19162 1.4796 -2.59792e-13 14.8718 55.6824 5.7554e-13 
1.39721 1.56747 -2.45137e-13 15.2979 47.2648 4.05009e-13 
1.30889 1.50965 -1.79412e-13 15.1806 50.3738 7.51399e-13 
1.72717 1.36267 -1.70974e-13 15.158 35.152 1.18128e-13 
1.8451 1.37294 63.776 9.18376e-13 32.7175 8.08242e-13 
2.23189 1.12635 -1.03805e-09 -9.44695e-14 22.7014 4.25437e-13 
2.26468 1.05868 -7.01661e-14 15.3925 21.1432 4.76952e-13 
1.47087 1.49855 -1.76303e-13 15.6949 44.3085 6.78568e-13 
1.52735 1.43816 -3.52607e-13 15.4399 41.8476 7.21201e-13 
2.42674 0.933214 64.9738 1.22213e-12 17.8255 2.83329e-13 
2.30535 0.966667 -5.41328e-09 4.86992e-14 19.1064 3.55715e-13 
0.634953 1.29983 -2.10942e-13 15.5516 104.535 1.41753e-12 
0.740596 1.30413 -1.39e-13 13.9728 93.6832 1.07292e-12 
2.06033 1.23064 -1.57652e-13 14.4933 26.5825 7.73603e-13 
1.9034 1.29078 -2.01617e-13 14.7303 30.1592 6.07514e-13 
1.98187 1.26071 -2.57572e-14 14.5403 28.3003 7.54063e-13 
2.11006 1.14311 61.1705 5.98632e-13 24.2576 5.10703e-13 
0.232498 1.04684 -1.97798e-09 1.79262e-14 185.301 1.30029e-12 
0.3345 1.12657 -9.4591e-14 14.6905 162.552 1.4424e-12 
0.207739 0.977825 -8.03801e-14 14.3622 199.854 1.52056e-12 
0.318024 1.28693 -8.08242e-14 14.6784 130.994 8.56204e-13 
2.45432 0.857894 -9.28146e-14 14.5651 16.401 1.55875e-13 
2.5805 0.793964 -3.40172e-13 14.4372 14.8938 3.2907e-13 
2.79706 0.765784 60.7238 1.23812e-12 13.8359 2.49134e-13 
2.70072 0.738971 -2.71984e-09 1.5648e-13 13.7487 4.23661e-13 
2.8934 0.792597 -2.95319e-13 14.0982 13.8658 5.63993e-14 
1.09904 1.4244 -1.13243e-13 14.4837 61.041 2.04281e-13 
1.58383 1.37778 -2.61124e-13 14.3995 39.3325 4.27214e-13 
1.64877 1.3006 -1.86517e-13 14.1826 36.1699 3.96128e-13 
0.371119 1.20609 -2.9976e-13 14.282 142.126 8.06466e-13 
1.72068 1.28725 60.0867 9.85878e-13 33.9527 -4.03233e-13 
2.91827 0.69547 -7.81121e-10 1.03653e-13 12.571 1.95399e-13 
0.423667 1.29123 -2.19824e-13 14.291 123.698 8.70415e-13 
0.972189 1.39088 -2.62901e-13 14.0791 69.9541 9.27258e-13 
0.879445 1.33639 59.2425 1.19726e-12 79.1286 1.07292e-12 
0.805612 1.26436 -1.06875e-10 5.64239e-14 89.7093 7.95808e-13 
0.52931 1.29553 -3.34399e-13 13.8648 114.739 8.3844e-13 
1.16198 1.3747 58.3375 1.1724e-12 57.7531 5.70211e-13 
1.29347 1.39054 3.62563e-10 1.45136e-13 50.7424 4.12115e-13 
1.36548 1.46017 -1.28342e-13 13.9834 47.929 5.98632e-13 
1.79853 1.26583 -2.4114e-13 13.724 31.7614 4.17444e-13 
2.17336 1.01785 -3.5083e-13 13.7876 21.1111 4.44089e-13 
1.43802 1.39 -1.75415e-13 13.4721 44.5223 1.52767e-13 
1.50527 1.31565 -2.16271e-13 13.5057 41.0035 8.03801e-13 
2.3594 0.826346 -1.06137e-13 13.5931 16.2345 5.20028e-13 
2.33355 0.896958 57.1942 1.35181e-12 17.6547 8.17568e-13 
2.21403 0.925764 1.81236e-11 9.33433e-14 18.8946 5.12479e-13 
0.688048 1.21899 -1.01252e-13 13.2655 106.918 8.02913e-13 
0.592915 1.23172 -9.23706e-14 13.3811 116.771 1.12266e-12 
1.97352 1.18094 -1.14131e-13 13.2822 26.8284 7.22089e-13 
1.89506 1.21101 -2.72227e-13 13.1719 28.7381 5.45342e-13 
2.02326 1.09333 -2.81997e-13 13.164 24.2868 6.386e-13 
2.09831 1.05559 55.3888 1.16884e-12 22.6315 7.33635e-13 
0.382286 1.04386 2.24734e-12 -5.40329e-14 181.92 9.02389e-13 
0.290622 0.956837 -1.94955e-13 13.6417 219.114 1.5703e-12 
0.422887 1.14968 -2.24709e-13 13.3605 149.217 1.112e-12 
2.48556 0.762339 56.2135 1.05516e-12 14.6807 2.59792e-13 
2.38287 0.754909 1.31505e-11 1.07094e-13 14.8337 8.30447e-14 
2.60438 0.712159 -1.50102e-13 11.4585 13.5931 7.59837e-13 
2.7231 0.651557 -2.08278e-13 11.6063 12.4873 5.6577e-13 
2.82069 0.673513 48.8427 9.39693e-13 12.5597 1.64757e-13 
2.62552 0.629601 -3.49062e-12 5.74707e-14 12.3448 4.14779e-13 
1.04234 1.34183 -1.39888e-13 11.4625 65.943 1.0445e-12 
1.57037 1.23852 -9.05942e-14 11.6129 37.3353 -1.94511e-13 
1.71418 1.21182 -1.94511e-13 11.3071 32.6391 7.1676e-13 
1.62983 1.15782 47.5798 7.30083e-13 33.7244 3.81029e-13 
2.84122 0.580505 7.93813e-12 7.36881e-14 11.346 1.71418e-13 
2.93988 0.597566 -4.52971e-14 11.3084 11.3409 1.36335e-13 
2.97323 0.399866 -1.4877e-13 11.1523 9.09483 5.973e-14 
2.95821 0.498995 -3.10418e-13 12.6156 10.1841 2.15827e-13 
2.50804 0.685346 -2.00284e-13 12.7146 13.3759 -8.79297e-14 
0.868286 1.22286 -3.49498e-13 12.833 85.1441 8.52651e-13 
0.511274 1.17278 -2.59792e-13 12.7335 135.389 1.10134e-12 
0.985634 1.25926 53.5804 1.29141e-12 72.2854 8.66862e-13 
0.791198 1.15499 -9.94624e-12 2.75022e-14 99.1259 1.22924e-12 
1.12383 1.27524 -1.6831e-13 13.3 60.6616 8.26006e-13 
1.26598 1.27923 -1.95843e-13 13.0581 51.6088 3.17968e-13 
1.36618 1.32044 -1.82077e-13 12.8245 46.8027 3.01981e-14 
1.77101 1.1285 -2.45581e-13 12.9413 29.3964 2.43361e-13 
2.08204 0.977021 -2.54907e-13 12.9411 21.0769 5.40901e-13 
1.4267 1.25352 54.457 1.39266e-12 43.1574 9.23706e-14 
2.26448 0.794797 -3.13212e-11 3.8787e-14 15.9786 6.95888e-13 
2.31231 0.727381 -1.78524e-13 13.1844 14.478 3.69038e-13 
2.12272 0.884861 55.4811 1.6307e-12 18.665 2.88658e-13 
2.1936 0.839829 1.173e-10 1.03887e-14 17.2299 3.74811e-13 
0.713349 1.14442 -3.34843e-13 13.0673 111.217 1.112e-12 
0.6355 1.13386 -1.65645e-13 13.208 124.449 1.73372e-12 
1.88671 1.13123 -1.52767e-13 11.4747 27.1554 4.15668e-13 
2.00925 1.01029 -1.64313e-13 12.3639 22.618 2.77112e-13 
1.93647 1.04356 -1.17684e-13 12.5916 24.3336 6.61693e-13 
0.456345 1.00372 -1.8785e-13 12.4631 184.086 1.09424e-12 
0.386234 0.9224 -2.11386e-13 12.4934 229.893 1.53477e-12 
0.500135 1.07467 52.5694 1.04805e-12 157.48 1.15463e-12 
2.4117 0.658533 -7.45968e-12 2.06266e-14 13.0498 4.63185e-13 
2.52794 0.607644 -1.11466e-13 11.6279 12.1175 6.21725e-14 
2.74255 0.563444 48.9357 1.00009e-12 11.2836 2.09166e-13 
2.64389 0.546382 1.36761e-11 -3.78155e-14 11.1427 -8.26006e-14 
2.54522 0.529321 -1.46105e-13 11.4955 10.9117 -3.28626e-14 
1.51933 1.14058 -2.50466e-13 11.6518 37.0626 -1.19016e-13 
1.68683 1.07452 -3.2685e-13 11.7847 30.0246 4.42313e-13 
1.57774 1.05816 -3.37064e-13 12.2291 32.7275 6.12843e-14 